[Molden Format]
[Atoms] (AU)
O    1    8           0.0000000000        -0.0000000000        -0.1266806098
H    2    1           0.0000000000         1.4386317871         1.0052566036
H    3    1           0.0000000000        -1.4386317870         1.0052566036
[GTO]
  1 0
 s    6  1.00
     5484.6717000000         0.0018311000
      825.2349500000         0.0139501000
      188.0469600000         0.0684451000
       52.9645000000         0.2327143000
       16.8975700000         0.4701930000
        5.7996353000         0.3585209000
 s    3  1.00
       15.5396160000        -0.1107775000
        3.5999336000        -0.1480263000
        1.0137618000         1.1307670000
 p    3  1.00
       15.5396160000         0.0708743000
        3.5999336000         0.3397528000
        1.0137618000         0.7271586000
 s    1  1.00
        0.2700058000         1.0000000000
 p    1  1.00
        0.2700058000         1.0000000000
 d    1  1.00
        0.8000000000         1.0000000000

  2 0
 s    3  1.00
       18.7311370000         0.0334946000
        2.8253937000         0.2347269500
        0.6401217000         0.8137573300
 s    1  1.00
        0.1612778000         1.0000000000

  3 0
 s    3  1.00
       18.7311370000         0.0334946000
        2.8253937000         0.2347269500
        0.6401217000         0.8137573300
 s    1  1.00
        0.1612778000         1.0000000000

[MO]
 Sym= A
 Ene=        -1.9138189422e+01
 Spin= Alpha
 Occup=         2.0000000000e+00
  1         9.9285999092e-01
  2         2.6224440944e-02
  3        -1.2714085811e-16
  4         3.4292616997e-15
  5         1.1016664321e-03
  6         1.0108963764e-02
  7         1.6978946542e-16
  8        -2.0554695471e-14
  9         1.5101313646e-06
 10        -7.7241201431e-03
 11        -7.7670423779e-03
 12        -7.7461567179e-03
 13         1.6771639766e-16
 14         2.6259953840e-16
 15         3.6631751794e-15
 16         3.6995651440e-04
 17        -1.0331404279e-03
 18         3.6995651443e-04
 19        -1.0331404280e-03
 Sym= A
 Ene=        -9.9793873572e-01
 Spin= Alpha
 Occup=         2.0000000000e+00
  1         2.0949297542e-01
  2        -4.6920107773e-01
  3        -6.4771791406e-16
  4         2.4063998789e-12
  5        -1.2774980373e-01
  6        -4.3947722520e-01
  7         3.1111457498e-16
  8         1.6541395865e-13
  9        -6.0673640309e-02
 10         1.0935271173e-02
 11        -1.8763250939e-02
 12        -1.6094634834e-02
 13         7.1093726128e-16
 14         4.1103720379e-16
 15         2.6710095782e-13
 16        -1.3916180591e-01
 17        -6.4494408946e-03
 18        -1.3916180591e-01
 19        -6.4494408944e-03
 Sym= A
 Ene=        -5.1707336327e-01
 Spin= Alpha
 Occup=         2.0000000000e+00
  1        -1.2560944084e-12
  2         1.7699831912e-12
  3        -2.9228273282e-15
  4         5.1746930259e-01
  5        -3.5441711072e-12
  6         7.6665654821e-12
  7        -2.5006012091e-15
  8         2.6978708577e-01
  9        -8.7110046428e-13
 10        -3.7348293524e-13
 11        -2.8547568265e-13
 12        -4.7898767971e-13
 13         4.5509036714e-16
 14        -1.8816511849e-15
 15         4.1284257110e-02
 16         2.3742125849e-01
 17         1.4200430435e-01
 18        -2.3742125849e-01
 19        -1.4200430435e-01
 Sym= A
 Ene=        -3.7231123900e-01
 Spin= Alpha
 Occup=         2.0000000000e+00
  1         8.8132049803e-02
  2        -1.7732562996e-01
  3         1.6607700528e-14
  4         2.5651964089e-12
  5         5.5175813035e-01
  6        -4.1056817076e-01
  7         1.0895372970e-14
  8         3.2298694044e-12
  9         3.7203316449e-01
 10         2.7658784752e-04
 11        -8.8746348095e-04
 12         5.2432500489e-02
 13        -1.5562706275e-15
 14         4.9908366613e-16
 15         7.4298391255e-14
 16         1.4377807410e-01
 17         1.1429212998e-01
 18         1.4377807410e-01
 19         1.1429212998e-01
 Sym= A
 Ene=        -2.9120879623e-01
 Spin= Alpha
 Occup=         2.0000000000e+00
  1        -1.9325694961e-15
  2         5.6118673245e-15
  3         6.4457899740e-01
  4         2.9047453086e-15
  5        -1.0921878363e-14
  6         5.1900476733e-15
  7         5.0604604788e-01
  8        -1.1525759672e-15
  9        -1.2237990177e-14
 10         4.5510556972e-16
 11         1.0647836973e-15
 12        -9.2825406842e-16
 13        -3.1476915870e-13
 14         3.5449029862e-02
 15        -2.6062380498e-15
 16        -1.3088688158e-15
 17         1.2331112433e-15
 18        -5.1601732631e-15
 19        -4.2064821345e-15
 Sym= A
 Ene=         6.2601352516e-02
 Spin= Alpha
 Occup=         0.0000000000e+00
  1         1.0062236153e-01
  2        -1.1925587646e-01
  3        -2.7706271817e-15
  4        -3.8910566202e-12
  5        -2.8074442355e-01
  6        -1.2577284268e+00
  7         3.4828623603e-15
  8         1.9407121065e-12
  9        -4.7761416053e-01
 10         5.8044554632e-02
 11         4.5079953802e-02
 12         2.7297363892e-02
 13         1.0277467240e-15
 14         6.8286566878e-16
 15         4.7153034807e-13
 16         9.6211118983e-02
 17         9.6903360017e-01
 18         9.6211118979e-02
 19         9.6903360019e-01
 Sym= A
 Ene=         1.4812607537e-01
 Spin= Alpha
 Occup=         0.0000000000e+00
  1         1.0774015703e-12
  2         9.8308919972e-12
  3         1.2179616152e-15
  4         4.1347293629e-01
  5         1.4409238392e-12
  6        -3.9692344936e-11
  7        -6.1421039031e-16
  8         7.5869020417e-01
  9        -7.2997229254e-12
 10         5.4855963343e-12
 11         3.4672714295e-12
 12         4.7975314310e-12
 13        -2.3136190816e-16
 14        -1.3552709649e-15
 15         1.8420390301e-02
 16        -1.0740280719e-01
 17        -1.2778914849e+00
 18         1.0740280719e-01
 19         1.2778914849e+00
 Sym= A
 Ene=         7.7231103196e-01
 Spin= Alpha
 Occup=         0.0000000000e+00
  1        -2.7168185872e-12
  2         6.9965779216e-12
  3         1.2235831541e-14
  4         1.7191222434e-01
  5         2.9527077637e-11
  6        -9.7077771072e-12
  7        -1.4771886933e-14
  8         4.3058362167e-01
  9        -1.2358421633e-11
 10         5.8316511912e-12
 11        -1.1617898215e-11
 12        -9.9320937410e-13
 13        -2.3867598889e-15
 14         8.6762828470e-18
 15        -1.9598631325e-01
 16        -8.4014284139e-01
 17         6.5544247949e-01
 18         8.4014284129e-01
 19        -6.5544247942e-01
 Sym= A
 Ene=         8.6110316289e-01
 Spin= Alpha
 Occup=         0.0000000000e+00
  1         3.7712492161e-02
  2        -1.3322903862e-01
  3        -9.2035872930e-14
  4        -2.4525206021e-12
  5        -7.1005093173e-01
  6         1.3175486344e-01
  7         1.0107040874e-13
  8         5.4888165301e-11
  9         3.8639072536e-01
 10        -1.1835877520e-01
 11         1.5373854907e-01
 12         1.2729095629e-02
 13         3.0472509647e-15
 14         3.6853786034e-15
 15        -1.4429286464e-11
 16         7.1003817714e-01
 17        -5.5097345684e-01
 18         7.1003817724e-01
 19        -5.5097345688e-01
 Sym= A
 Ene=         8.9075036419e-01
 Spin= Alpha
 Occup=         0.0000000000e+00
  1         1.1754216318e-14
  2        -5.3268931858e-13
  3         9.5943405316e-01
  4        -1.1701259008e-14
  5         2.8592977241e-13
  6         8.7326371203e-13
  7        -1.0386230648e+00
  8         6.9422863159e-15
  9        -4.9822847446e-13
 10        -2.1637933094e-13
 11        -7.7797447248e-14
 12        -1.7109619534e-13
 13        -9.8525810310e-14
 14        -1.6412553132e-02
 15         3.7796589881e-16
 16         3.8307392670e-13
 17        -2.9824699078e-13
 18         3.5683646703e-13
 19        -2.6559786129e-13
 Sym= A
 Ene=         8.9514952339e-01
 Spin= Alpha
 Occup=         0.0000000000e+00
  1         1.0621884170e-02
  2        -8.3728394117e-01
  3        -6.0995836380e-13
  4        -2.5615947969e-12
  5         5.5561871453e-01
  6         1.4120053222e+00
  7         6.5863925690e-13
  8         2.1514585404e-11
  9        -8.2581773595e-01
 10        -3.2812394250e-01
 11        -1.5687405696e-01
 12        -2.7698608390e-01
 13        -2.9808448241e-15
 14         1.2030735824e-14
 15        -2.7991848496e-12
 16         4.7018635671e-01
 17        -3.7551432037e-01
 18         4.7018635673e-01
 19        -3.7551432036e-01
 Sym= A
 Ene=         1.0657983574e+00
 Spin= Alpha
 Occup=         0.0000000000e+00
  1        -2.0451003316e-12
  2        -5.1391292855e-11
  3         8.4825749953e-15
  4         9.8924715674e-01
  5        -1.8382254320e-11
  6         1.2645184812e-10
  7        -9.7090427139e-15
  8        -1.6277762721e+00
  9         3.4872757340e-11
 10        -1.6688529093e-11
 11        -1.2957111768e-11
 12        -1.4389139081e-11
 13         3.7904393634e-15
 14        -4.5353611143e-15
 15         1.5913428241e-02
 16        -1.9683332265e-02
 17         9.2679590773e-01
 18         1.9683332270e-02
 19        -9.2679590780e-01
 Sym= A
 Ene=         1.1936098226e+00
 Spin= Alpha
 Occup=         0.0000000000e+00
  1         8.1965440873e-02
  2         1.4569817927e+00
  3        -9.1563163481e-15
  4         2.6599103562e-11
  5         4.0254996529e-01
  6        -3.5961491501e+00
  7         7.8438206603e-15
  8        -3.6825594657e-11
  9        -1.1063976890e+00
 10         2.4998691554e-01
 11         6.5747966015e-01
 12         3.9339688054e-01
 13         1.4015315147e-15
 14         2.7931234417e-15
 15        -5.1093312626e-13
 16         3.5280385530e-01
 17         7.7283667224e-01
 18         3.5280385531e-01
 19         7.7283667220e-01
 Sym= A
 Ene=         1.7291682272e+00
 Spin= Alpha
 Occup=         0.0000000000e+00
  1         7.4247828150e-03
  2         9.0006897177e-02
  3         9.1514656903e-16
  4         1.3069568214e-12
  5         9.0958312272e-03
  6        -2.5211404715e-01
  7         6.3592844280e-16
  8        -2.2278342365e-12
  9        -1.4348300450e-01
 10        -3.4316011157e-01
 11        -5.9660689983e-01
 12         1.0068026787e+00
 13        -1.9248575767e-14
 14        -2.9821001082e-14
 15         3.4802502939e-12
 16         8.1586070597e-02
 17         4.2241770067e-02
 18         8.1586070596e-02
 19         4.2241770065e-02
 Sym= A
 Ene=         1.7465469390e+00
 Spin= Alpha
 Occup=         0.0000000000e+00
  1         6.5389771983e-17
  2        -1.9290451266e-15
  3         4.3685495432e-13
  4        -3.8412807853e-15
  5         4.7944369514e-15
  6         1.4119963421e-15
  7         7.4614108158e-13
  8         9.4900407766e-15
  9        -5.4493603957e-15
 10        -3.8401171911e-15
 11        -1.5339384189e-14
 12         1.8305206963e-14
 13         1.0000000000e+00
 14        -1.9651844293e-11
 15         1.7288480244e-15
 16        -1.1318163851e-15
 17        -3.1133376169e-15
 18         6.5444469033e-15
 19         2.0427665519e-15
 Sym= A
 Ene=         1.7799154162e+00
 Spin= Alpha
 Occup=         0.0000000000e+00
  1         2.0240049470e-15
  2         3.7461557423e-15
  3         7.1083635249e-03
  4        -5.5845858645e-15
  5         8.0080921866e-16
  6        -2.5186129174e-14
  7         3.5012022169e-02
  8         6.6077311164e-15
  9        -7.5234313226e-15
 10         2.5332022314e-14
 11         1.6515470900e-14
 12        -2.5910544924e-14
 13        -1.9677066959e-11
 14        -9.9923670588e-01
 15         1.1569628107e-15
 16         6.3230337064e-15
 17         4.0555294627e-16
 18         9.6781863475e-15
 19         4.7411738537e-15
 Sym= A
 Ene=         2.2806706249e+00
 Spin= Alpha
 Occup=         0.0000000000e+00
  1         5.1631273228e-02
  2         5.1503822298e-01
  3         1.4514064378e-16
  4         8.6278414968e-12
  5         6.2985065134e-02
  6        -1.5392273484e+00
  7        -3.9104710924e-16
  8        -2.1963150049e-11
  9        -7.3962596497e-01
 10         1.1313665231e+00
 11        -7.3556409509e-01
 12        -7.1701072196e-02
 13        -2.8849764148e-15
 14         9.6801854003e-15
 15        -3.1370924884e-11
 16         8.1250741894e-01
 17         1.4153417207e-01
 18         8.1250741891e-01
 19         1.4153417207e-01
 Sym= A
 Ene=         2.5769797537e+00
 Spin= Alpha
 Occup=         0.0000000000e+00
  1        -2.5804777152e-12
  2        -1.4653925642e-11
  3        -2.7344183132e-15
  4         3.6842223021e-02
  5         2.4227603430e-12
  6         6.7305140627e-11
  7         8.4979299236e-16
  8        -8.4190368149e-01
  9         3.3874821351e-11
 10        -3.7055546999e-11
 11         1.9555002149e-11
 12         6.7542937389e-12
 13         1.9234049015e-15
 14        -1.0592842344e-15
 15        -1.2721588502e+00
 16         9.2341584432e-01
 17        -5.0363392147e-02
 18        -9.2341584440e-01
 19         5.0363392131e-02
 Sym= A
 Ene=         3.5518466106e+00
 Spin= Alpha
 Occup=         0.0000000000e+00
  1         4.6794556926e-01
  2        -2.8669886521e-01
  3        -1.1557337101e-16
  4        -1.0637081493e-12
  5         1.1666041068e-01
  6        -3.6895118133e+00
  7         7.0204503121e-16
  8        -1.1120583621e-12
  9        -3.3417304655e-01
 10         1.5788113987e+00
 11         1.5260580024e+00
 12         1.5495737979e+00
 13        -6.5143144940e-16
 14         2.6873295375e-15
 15        -3.1957583242e-12
 16        -1.1572918243e-01
 17         5.5448371659e-01
 18        -1.1572918244e-01
 19         5.5448371660e-01
