[Molden Format]
[Atoms] (AU)
O    1    8           0.0000000000        -0.0000000000        -0.1266806098
H    2    1           0.0000000000         1.4386317871         1.0052566036
H    3    1           0.0000000000        -1.4386317870         1.0052566036
[GTO]
  1 0
 s    6  1.00
     5484.6717000000         0.0018311000
      825.2349500000         0.0139501000
      188.0469600000         0.0684451000
       52.9645000000         0.2327143000
       16.8975700000         0.4701930000
        5.7996353000         0.3585209000
 s    3  1.00
       15.5396160000        -0.1107775000
        3.5999336000        -0.1480263000
        1.0137618000         1.1307670000
 p    3  1.00
       15.5396160000         0.0708743000
        3.5999336000         0.3397528000
        1.0137618000         0.7271586000
 s    1  1.00
        0.2700058000         1.0000000000
 p    1  1.00
        0.2700058000         1.0000000000
 d    1  1.00
        0.8000000000         1.0000000000

  2 0
 s    3  1.00
       18.7311370000         0.0334946000
        2.8253937000         0.2347269500
        0.6401217000         0.8137573300
 s    1  1.00
        0.1612778000         1.0000000000

  3 0
 s    3  1.00
       18.7311370000         0.0334946000
        2.8253937000         0.2347269500
        0.6401217000         0.8137573300
 s    1  1.00
        0.1612778000         1.0000000000

[MO]
 Sym= A
 Ene=        -1.9138189421e+01
 Spin= Alpha
 Occup=         2.0000000000e+00
  1         9.9285999092e-01
  2         2.6224440947e-02
  3        -2.2950130194e-17
  4         3.0510331791e-15
  5         1.1016664373e-03
  6         1.0108963755e-02
  7         1.6298390811e-16
  8        -2.0308931577e-14
  9         1.5101277253e-06
 10        -7.7241201401e-03
 11        -7.7670423772e-03
 12        -7.7461567144e-03
 13         1.1267491714e-16
 14        -5.6087502020e-17
 15         3.4915811767e-15
 16         3.6995651430e-04
 17        -1.0331404259e-03
 18         3.6995651433e-04
 19        -1.0331404260e-03
 Sym= A
 Ene=        -9.9793873486e-01
 Spin= Alpha
 Occup=         2.0000000000e+00
  1         2.0949297528e-01
  2        -4.6920107708e-01
  3        -5.1209657422e-16
  4         2.4125296588e-12
  5        -1.2774980415e-01
  6        -4.3947722506e-01
  7         3.8636554738e-16
  8         1.6826684057e-13
  9        -6.0673640609e-02
 10         1.0935271206e-02
 11        -1.8763250939e-02
 12        -1.6094634859e-02
 13         7.2463263829e-16
 14         4.0813235720e-16
 15         2.6745671392e-13
 16        -1.3916180618e-01
 17        -6.4494410945e-03
 18        -1.3916180618e-01
 19        -6.4494410943e-03
 Sym= A
 Ene=        -5.1707336251e-01
 Spin= Alpha
 Occup=         2.0000000000e+00
  1        -1.2604088262e-12
  2         1.7798771029e-12
  3        -2.8375727534e-15
  4         5.1746930165e-01
  5        -3.5454740865e-12
  6         7.6777983762e-12
  7        -2.5067771151e-15
  8         2.6978708560e-01
  9        -8.7233054476e-13
 10        -3.7268237465e-13
 11        -2.8633334401e-13
 12        -4.7842808154e-13
 13         4.0288452569e-16
 14        -1.7709871393e-15
 15         4.1284257181e-02
 16         2.3742125878e-01
 17         1.4200430517e-01
 18        -2.3742125878e-01
 19        -1.4200430517e-01
 Sym= A
 Ene=        -3.7231123813e-01
 Spin= Alpha
 Occup=         2.0000000000e+00
  1         8.8132049970e-02
  2        -1.7732563021e-01
  3         1.6702017052e-14
  4         2.5718317899e-12
  5         5.5175813025e-01
  6        -4.1056817098e-01
  7         1.0723475291e-14
  8         3.2324935993e-12
  9         3.7203316466e-01
 10         2.7658776102e-04
 11        -8.8746361915e-04
 12         5.2432500702e-02
 13        -1.6433146706e-15
 14         3.0982374228e-16
 15         7.4805888897e-14
 16         1.4377807398e-01
 17         1.1429212959e-01
 18         1.4377807397e-01
 19         1.1429212960e-01
 Sym= A
 Ene=        -2.9120879530e-01
 Spin= Alpha
 Occup=         2.0000000000e+00
  1        -1.9940703044e-15
  2         5.8744725745e-15
  3         6.4457899717e-01
  4         2.8158427312e-15
  5        -1.1076740988e-14
  6         5.6714201498e-15
  7         5.0604604811e-01
  8        -1.0781952160e-15
  9        -1.2239188583e-14
 10         4.8219249857e-17
 11         6.4896175568e-16
 12        -1.6600974299e-15
 13        -3.1587441950e-13
 14         3.5449030058e-02
 15        -2.2254481592e-15
 16        -1.3204641150e-15
 17         1.7234970350e-15
 18        -4.8677729272e-15
 19        -3.9848366330e-15
 Sym= A
 Ene=         6.2601352547e-02
 Spin= Alpha
 Occup=         0.0000000000e+00
  1         1.0062236162e-01
  2        -1.1925587619e-01
  3        -2.9792470816e-15
  4        -3.9095101047e-12
  5        -2.8074442342e-01
  6        -1.2577284279e+00
  7         2.9976899254e-15
  8         1.8765603899e-12
  9        -4.7761416030e-01
 10         5.8044554778e-02
 11         4.5079953881e-02
 12         2.7297363897e-02
 13         9.8339949906e-16
 14         8.9095277306e-16
 15         4.7062984173e-13
 16         9.6211118843e-02
 17         9.6903360047e-01
 18         9.6211118839e-02
 19         9.6903360049e-01
 Sym= A
 Ene=         1.4812607569e-01
 Spin= Alpha
 Occup=         0.0000000000e+00
  1         1.0819931781e-12
  2         9.7958544137e-12
  3         1.5855676799e-15
  4         4.1347293631e-01
  5         1.4149927208e-12
  6        -3.9707324325e-11
  7        -7.7462263315e-16
  8         7.5869020519e-01
  9        -7.3235724643e-12
 10         5.4729378913e-12
 11         3.4545909608e-12
 12         4.7841917421e-12
 13        -2.1740170006e-16
 14        -1.3248017324e-15
 15         1.8420390543e-02
 16        -1.0740280672e-01
 17        -1.2778914854e+00
 18         1.0740280672e-01
 19         1.2778914854e+00
 Sym= A
 Ene=         7.7231103221e-01
 Spin= Alpha
 Occup=         0.0000000000e+00
  1        -2.7130589453e-12
  2         7.0524522094e-12
  3         1.3910771694e-14
  4         1.7191222498e-01
  5         2.9509067578e-11
  6        -9.8335826654e-12
  7        -1.6364256321e-14
  8         4.3058362157e-01
  9        -1.2352989833e-11
 10         5.8553696649e-12
 11        -1.1591605776e-11
 12        -9.6878967462e-13
 13        -2.7882825787e-15
 14         3.9521158565e-16
 15        -1.9598631297e-01
 16        -8.4014284156e-01
 17         6.5544247943e-01
 18         8.4014284147e-01
 19        -6.5544247935e-01
 Sym= A
 Ene=         8.6110316322e-01
 Spin= Alpha
 Occup=         0.0000000000e+00
  1         3.7712492311e-02
  2        -1.3322904884e-01
  3        -1.0094017736e-13
  4        -2.4827064380e-12
  5        -7.1005092519e-01
  6         1.3175488054e-01
  7         1.1050339624e-13
  8         5.4921993523e-11
  9         3.8639071538e-01
 10        -1.1835877898e-01
 11         1.5373854694e-01
 12         1.2729092203e-02
 13         3.1068752226e-15
 14         3.8405510430e-15
 15        -1.4423009411e-11
 16         7.1003818287e-01
 17        -5.5097346136e-01
 18         7.1003818296e-01
 19        -5.5097346140e-01
 Sym= A
 Ene=         8.9075036494e-01
 Spin= Alpha
 Occup=         0.0000000000e+00
  1         1.1552311298e-14
  2        -4.6873542735e-13
  3         9.5943405331e-01
  4        -1.1740741839e-14
  5         2.3758934397e-13
  6         7.6199223893e-13
  7        -1.0386230647e+00
  8         5.3902987576e-15
  9        -4.3333221556e-13
 10        -1.9106446649e-13
 11        -6.3140863657e-14
 12        -1.4943062420e-13
 13        -9.8675756483e-14
 14        -1.6412553209e-02
 15         8.0242438063e-16
 16         3.5594203828e-13
 17        -2.7449501870e-13
 18         3.2684908218e-13
 19        -2.4091039907e-13
 Sym= A
 Ene=         8.9514952418e-01
 Spin= Alpha
 Occup=         0.0000000000e+00
  1         1.0621883816e-02
  2        -8.3728393857e-01
  3        -5.3709385470e-13
  4        -2.5824399406e-12
  5         5.5561872329e-01
  6         1.4120053177e+00
  7         5.7970271047e-13
  8         2.1559450298e-11
  9        -8.2581774158e-01
 10        -3.2812394083e-01
 11        -1.5687405854e-01
 12        -2.7698608401e-01
 13        -2.7618196517e-15
 14         1.1194611307e-14
 15        -2.8034975690e-12
 16         4.7018634859e-01
 17        -3.7551431291e-01
 18         4.7018634861e-01
 19        -3.7551431290e-01
 Sym= A
 Ene=         1.0657983585e+00
 Spin= Alpha
 Occup=         0.0000000000e+00
  1        -2.0369823978e-12
  2        -5.1335763199e-11
  3         8.0871402900e-15
  4         9.8924715711e-01
  5        -1.8364338822e-11
  6         1.2627899519e-10
  7        -9.2881243206e-15
  8        -1.6277762717e+00
  9         3.4805417444e-11
 10        -1.6674518529e-11
 11        -1.2912561507e-11
 12        -1.4363126491e-11
 13         4.3165238376e-15
 14        -5.1475566311e-15
 15         1.5913428328e-02
 16        -1.9683331885e-02
 17         9.2679590693e-01
 18         1.9683331890e-02
 19        -9.2679590700e-01
 Sym= A
 Ene=         1.1936098228e+00
 Spin= Alpha
 Occup=         0.0000000000e+00
  1         8.1965440880e-02
  2         1.4569817935e+00
  3        -1.0262934671e-14
  4         2.6547357194e-11
  5         4.0254996485e-01
  6        -3.5961491516e+00
  7         8.6886223690e-15
  8        -3.6734386366e-11
  9        -1.1063976886e+00
 10         2.4998691627e-01
 11         6.5747966034e-01
 12         3.9339688073e-01
 13         8.5695609716e-16
 14         3.9122248428e-15
 15        -5.0073979652e-13
 16         3.5280385526e-01
 17         7.7283667238e-01
 18         3.5280385527e-01
 19         7.7283667234e-01
 Sym= A
 Ene=         1.7291682281e+00
 Spin= Alpha
 Occup=         0.0000000000e+00
  1         7.4247828016e-03
  2         9.0006897321e-02
  3         1.4920201198e-15
  4         1.3054566651e-12
  5         9.0958311870e-03
  6        -2.5211404739e-01
  7         4.5764502790e-16
  8        -2.2230485681e-12
  9        -1.4348300479e-01
 10        -3.4316011168e-01
 11        -5.9660689970e-01
 12         1.0068026787e+00
 13        -2.4314652241e-14
 14        -3.7552097229e-14
 15         3.4865611028e-12
 16         8.1586070600e-02
 17         4.2241770186e-02
 18         8.1586070600e-02
 19         4.2241770184e-02
 Sym= A
 Ene=         1.7465469398e+00
 Spin= Alpha
 Occup=         0.0000000000e+00
  1         1.3686657496e-16
  2        -1.1473062035e-15
  3         4.3807832302e-13
  4        -4.2615280135e-15
  5         4.8715291446e-15
  6        -5.9186365716e-17
  7         7.4690118387e-13
  8         1.0650025193e-14
  9        -5.4442896161e-15
 10        -6.9255943720e-15
 11        -1.7085541622e-14
 12         2.3779680729e-14
 13         1.0000000000e+00
 14        -1.9671218176e-11
 15         1.8855395841e-15
 16        -2.2479059603e-15
 17        -2.6638246732e-15
 18         6.3771003331e-15
 19         2.7990353450e-15
 Sym= A
 Ene=         1.7799154171e+00
 Spin= Alpha
 Occup=         0.0000000000e+00
  1         1.9428381511e-15
  2         4.8724483037e-15
  3         7.1083635674e-03
  4        -6.2863123117e-15
  5         1.0949898434e-15
  6        -2.8485389156e-14
  7         3.5012022355e-02
  8         8.1635503975e-15
  9        -8.8006593550e-15
 10         2.8705911997e-14
 11         2.1684099350e-14
 12        -3.3380073284e-14
 13        -1.9696928471e-11
 14        -9.9923670587e-01
 15         3.0410354467e-16
 16         6.7981192706e-15
 17         9.6904236165e-16
 18         1.0181344433e-14
 19         6.0467512954e-15
 Sym= A
 Ene=         2.2806706256e+00
 Spin= Alpha
 Occup=         0.0000000000e+00
  1         5.1631273199e-02
  2         5.1503822276e-01
  3        -3.3504488735e-16
  4         8.6256956439e-12
  5         6.2985065086e-02
  6        -1.5392273477e+00
  7         8.2967728609e-17
  8        -2.1945615464e-11
  9        -7.3962596462e-01
 10         1.1313665231e+00
 11        -7.3556409529e-01
 12        -7.1701072140e-02
 13        -1.5536880570e-15
 14         1.0382655539e-14
 15        -3.1346374059e-11
 16         8.1250741865e-01
 17         1.4153417201e-01
 18         8.1250741861e-01
 19         1.4153417201e-01
 Sym= A
 Ene=         2.5769797545e+00
 Spin= Alpha
 Occup=         0.0000000000e+00
  1        -2.5816718555e-12
  2        -1.4637286175e-11
  3        -2.4390452780e-15
  4         3.6842223110e-02
  5         2.4236357279e-12
  6         6.7279661009e-11
  7         9.6432982124e-16
  8        -8.4190368129e-01
  9         3.3856388179e-11
 10        -3.7044433059e-11
 11         1.9532502785e-11
 12         6.7507349537e-12
 13         2.1115677922e-15
 14        -1.5916307266e-16
 15        -1.2721588503e+00
 16         9.2341584415e-01
 17        -5.0363392154e-02
 18        -9.2341584422e-01
 19         5.0363392138e-02
 Sym= A
 Ene=         3.5518466116e+00
 Spin= Alpha
 Occup=         0.0000000000e+00
  1         4.6794556927e-01
  2        -2.8669886549e-01
  3        -7.8467304910e-16
  4        -1.0690005738e-12
  5         1.1666041067e-01
  6        -3.6895118128e+00
  7         1.0178601108e-15
  8        -1.1035295941e-12
  9        -3.3417304651e-01
 10         1.5788113986e+00
 11         1.5260580024e+00
 12         1.5495737979e+00
 13        -6.2695558528e-16
 14         2.5908829780e-15
 15        -3.2020725837e-12
 16        -1.1572918242e-01
 17         5.5448371650e-01
 18        -1.1572918243e-01
 19         5.5448371651e-01
