[Molden Format]
[Atoms] (AU)
O    1    8          -2.0845268703        -1.4250651266         0.7474779934
H    2    1          -2.0845268703        -1.4250651266         2.5801357784
H    3    1          -2.0845268703         0.3597194320         0.3136639492
O    4    8           2.1050986581         1.4244881594        -0.7496841856
H    5    1           2.3883182565         1.3134132129        -2.5550080970
H    6    1           1.4542462842        -0.2389106303        -0.3037777584
[GTO]
  1 0
 s    6  1.00
     5484.6717000000         0.0018311000
      825.2349500000         0.0139501000
      188.0469600000         0.0684451000
       52.9645000000         0.2327143000
       16.8975700000         0.4701930000
        5.7996353000         0.3585209000
 s    3  1.00
       15.5396160000        -0.1107775000
        3.5999336000        -0.1480263000
        1.0137618000         1.1307670000
 p    3  1.00
       15.5396160000         0.0708743000
        3.5999336000         0.3397528000
        1.0137618000         0.7271586000
 s    1  1.00
        0.2700058000         1.0000000000
 p    1  1.00
        0.2700058000         1.0000000000
 d    1  1.00
        0.8000000000         1.0000000000

  2 0
 s    3  1.00
       18.7311370000         0.0334946000
        2.8253937000         0.2347269500
        0.6401217000         0.8137573300
 s    1  1.00
        0.1612778000         1.0000000000

  3 0
 s    3  1.00
       18.7311370000         0.0334946000
        2.8253937000         0.2347269500
        0.6401217000         0.8137573300
 s    1  1.00
        0.1612778000         1.0000000000

  4 0
 s    6  1.00
     5484.6717000000         0.0018311000
      825.2349500000         0.0139501000
      188.0469600000         0.0684451000
       52.9645000000         0.2327143000
       16.8975700000         0.4701930000
        5.7996353000         0.3585209000
 s    3  1.00
       15.5396160000        -0.1107775000
        3.5999336000        -0.1480263000
        1.0137618000         1.1307670000
 p    3  1.00
       15.5396160000         0.0708743000
        3.5999336000         0.3397528000
        1.0137618000         0.7271586000
 s    1  1.00
        0.2700058000         1.0000000000
 p    1  1.00
        0.2700058000         1.0000000000
 d    1  1.00
        0.8000000000         1.0000000000

  5 0
 s    3  1.00
       18.7311370000         0.0334946000
        2.8253937000         0.2347269500
        0.6401217000         0.8137573300
 s    1  1.00
        0.1612778000         1.0000000000

  6 0
 s    3  1.00
       18.7311370000         0.0334946000
        2.8253937000         0.2347269500
        0.6401217000         0.8137573300
 s    1  1.00
        0.1612778000         1.0000000000

[MO]
 Sym= A
 Ene=        -1.9157414223e+01
 Spin= Alpha
 Occup=         2.0000000000e+00
  1         9.9283249968e-01
  2         2.6153170124e-02
  3        -5.2711016076e-06
  4         8.0982455576e-04
  5         6.7993189207e-04
  6         1.0466943320e-02
  7         1.4380548545e-04
  8         7.4739680113e-05
  9        -4.0947219639e-05
 10        -7.7916878231e-03
 11        -7.8381340890e-03
 12        -7.8546184458e-03
 13         1.2415129917e-05
 14        -1.3172820447e-05
 15         2.1454270956e-06
 16         3.5260995865e-04
 17        -1.0176004085e-03
 18         3.2618273231e-04
 19        -1.0314976616e-03
 20        -3.2793782509e-05
 21        -1.4286991603e-04
 22        -3.5826382574e-06
 23         1.4709490462e-05
 24        -1.6888043509e-05
 25         7.1954715958e-04
 26        -9.5945859914e-05
 27        -2.2864236264e-04
 28         1.0350473104e-04
 29        -1.0799352683e-04
 30        -4.7101801383e-05
 31        -9.7377461080e-05
 32         4.2686577039e-06
 33        -3.9541132581e-06
 34        -1.4671218052e-05
 35        -3.2678851044e-05
 36         9.0925546014e-05
 37        -8.3606459554e-05
 38        -6.6157529502e-04
 Sym= A
 Ene=        -1.9132012186e+01
 Spin= Alpha
 Occup=         2.0000000000e+00
  1        -2.0730600961e-05
  2        -9.2045685472e-05
  3         3.6123153437e-06
  4         3.6834933372e-06
  5         1.6841745477e-05
  6         4.6202072495e-04
  7         7.0549790554e-05
  8         7.1833288639e-05
  9        -8.6545040233e-05
 10        -4.6111063257e-05
 11        -7.6701830584e-05
 12        -5.8169746244e-05
 13        -2.0206886320e-05
 14        -3.5859435254e-06
 15         5.3464039544e-06
 16        -2.1370880559e-05
 17         8.2533023377e-05
 18         4.3555307450e-05
 19        -3.2934572573e-04
 20         9.9284007931e-01
 21         2.6174138451e-02
 22        -1.5389444199e-04
 23        -7.7887185692e-04
 24        -6.7051761868e-04
 25         1.0404636111e-02
 26        -7.2156734011e-05
 27        -1.0217916258e-04
 28         3.0553989796e-05
 29        -7.7832673896e-03
 30        -7.8029119619e-03
 31        -7.8204517661e-03
 32        -3.3151231781e-06
 33         4.4058743752e-06
 34         4.2895215424e-06
 35         3.5733606413e-04
 36        -1.0124592103e-03
 37         3.6467328990e-04
 38        -1.2058828720e-03
 Sym= A
 Ene=        -1.0172184252e+00
 Spin= Alpha
 Occup=         2.0000000000e+00
  1         2.0323110111e-01
  2        -4.5333428715e-01
  3        -3.9260048187e-03
  4        -9.5059759023e-02
  5        -7.4720181254e-02
  6        -4.3284916862e-01
  7        -4.7763745251e-03
  8        -4.7294173308e-02
  9        -3.4137178341e-02
 10         9.6886824291e-03
 11        -1.5337636879e-02
 12        -1.6230188068e-02
 13        -5.8880863946e-04
 14         4.5159038405e-04
 15         2.0002928650e-03
 16        -1.3287802447e-01
 17        -5.3369710470e-03
 18        -1.3206056652e-01
 19        -8.1216125590e-04
 20         5.0335553495e-02
 21        -1.1035039249e-01
 22         8.0131300566e-03
 23         2.5250404721e-02
 24         1.5672370813e-02
 25        -1.0626495560e-01
 26         7.7402038242e-03
 27         1.1254435196e-02
 28         6.4889812154e-03
 29         1.1742597722e-03
 30        -2.1709642451e-03
 31        -2.8702081788e-03
 32        -3.0912550328e-03
 33         1.7539816434e-03
 34         2.0042299241e-04
 35        -3.1368256363e-02
 36        -1.7601565882e-03
 37        -3.9111252087e-02
 38        -6.5998123371e-03
 Sym= A
 Ene=        -9.8983653907e-01
 Spin= Alpha
 Occup=         2.0000000000e+00
  1         5.3762869535e-02
  2        -1.2224167033e-01
  3         3.1755648259e-03
  4        -2.2542349225e-02
  5        -2.3346905386e-02
  6        -1.1464185997e-01
  7         6.3709966694e-03
  8        -1.1696207416e-02
  9        -1.2189150359e-02
 10         3.8817747932e-03
 11        -4.7267011287e-03
 12        -5.3058002874e-03
 13         1.3640363692e-03
 14        -6.1290287339e-04
 15         1.4364123143e-04
 16        -3.7849777220e-02
 17        -2.4755109023e-04
 18        -3.0968253960e-02
 19         5.9553726124e-03
 20        -2.0417553677e-01
 21         4.5454488860e-01
 22        -1.9139224050e-02
 23        -9.1705087912e-02
 24        -7.6024015039e-02
 25         4.3896582456e-01
 26        -1.0721477773e-02
 27        -4.7053986031e-02
 28        -3.4188932533e-02
 29        -7.4874864188e-03
 30         1.2266057911e-02
 31         1.5844195415e-02
 32         9.0857498226e-03
 33        -5.5687091759e-03
 34        -4.6562474567e-05
 35         1.3595416765e-01
 36         7.8721011530e-03
 37         1.2879609799e-01
 38        -5.7559835904e-03
 Sym= A
 Ene=        -5.3693239165e-01
 Spin= Alpha
 Occup=         2.0000000000e+00
  1         1.9989292499e-03
  2        -8.9749311624e-03
  3         1.9379294598e-02
  4         2.9209856849e-01
  5        -3.8052896710e-01
  6         3.7307779273e-03
  7         1.6945610360e-02
  8         1.5801009832e-01
  9        -2.0299391769e-01
 10         2.3230816097e-04
 11         3.0251247008e-02
 12        -3.4111892939e-02
 13         2.5381289989e-03
 14        -8.0660723920e-04
 15        -9.3605013356e-03
 16        -2.2095098397e-01
 17        -1.2281824935e-01
 18         2.1275149148e-01
 19         1.1701908379e-01
 20         6.5614927800e-03
 21        -1.9583639194e-02
 22        -7.7879239453e-02
 23        -9.3406683977e-02
 24         1.3850269451e-01
 25        -1.1919725290e-02
 26        -4.9688199872e-02
 27        -5.0991656965e-02
 28         7.2179845736e-02
 29         2.2553623185e-03
 30         7.8216723519e-03
 31        -1.4095466238e-02
 32         6.7164795575e-03
 33         1.3416078133e-03
 34        -3.6771106543e-03
 35        -8.7264668227e-02
 36        -4.3955508716e-02
 37         8.6701641951e-02
 38         4.5195413215e-02
 Sym= A
 Ene=        -5.0796262983e-01
 Spin= Alpha
 Occup=         2.0000000000e+00
  1         9.3574969067e-03
  2        -2.4608255096e-02
  3         4.9434579527e-02
  4        -1.2713039934e-01
  5         1.5546611736e-01
  6        -2.9580498874e-02
  7         3.9772147414e-02
  8        -6.6864029498e-02
  9         8.3418174194e-02
 10         3.0178473593e-03
 11        -1.5093475587e-02
 12         1.1443786132e-02
 13         4.2385251953e-03
 14         9.9099401326e-04
 15         3.7119345568e-03
 16         8.4554256071e-02
 17         5.9053178822e-02
 18        -9.0803615053e-02
 19        -4.7050195853e-02
 20        -5.1450170359e-03
 21         9.4896568650e-03
 22        -1.4792728828e-01
 23        -2.5488832313e-01
 24         3.7917027464e-01
 25         2.6503623220e-02
 26        -7.7857999703e-02
 27        -1.3834047856e-01
 28         2.0342540947e-01
 29         2.1556833216e-03
 30         2.6874797678e-02
 31        -3.1741460493e-02
 32         1.2576515413e-02
 33         1.8309527162e-03
 34        -1.1019243803e-02
 35        -2.1949085980e-01
 36        -1.3327161249e-01
 37         2.1279511674e-01
 38         1.1788587609e-01
 Sym= A
 Ene=        -3.9277126607e-01
 Spin= Alpha
 Occup=         2.0000000000e+00
  1         8.2168228557e-02
  2        -1.6661567977e-01
  3        -3.6797093220e-02
  4         4.2830225072e-01
  5         3.2756331142e-01
  6        -3.8050867769e-01
  7        -2.1159697410e-02
  8         2.8803426243e-01
  9         2.2145062020e-01
 10        -1.8265691639e-03
 11         3.0819965159e-02
 12         1.7480246856e-02
 13        -2.2194245272e-04
 14         5.6150795931e-05
 15         2.7824087331e-02
 16         1.3646973897e-01
 17         1.0344013967e-01
 18         1.4082824796e-01
 19         1.1938108923e-01
 20        -1.9436007600e-02
 21         3.0576230769e-02
 22        -7.0678250883e-03
 23         9.6169800059e-02
 24         6.5060002383e-02
 25         1.1998680176e-01
 26        -9.7781424234e-03
 27         5.2719269805e-02
 28         5.3050620947e-02
 29        -2.6125670403e-03
 30        -9.6904613244e-03
 31        -7.0777413758e-03
 32        -5.4688482549e-04
 33        -1.3719735722e-03
 34        -6.6307529674e-03
 35        -2.9121169543e-02
 36        -1.8525754276e-02
 37        -3.6132623248e-02
 38        -7.9525131755e-02
 Sym= A
 Ene=        -3.6907821266e-01
 Spin= Alpha
 Occup=         2.0000000000e+00
  1         2.2286653997e-02
  2        -5.2881780033e-02
  3         1.0519298684e-01
  4         9.3689379600e-02
  5         8.9530057892e-02
  6        -7.9974595712e-02
  7         7.7712558608e-02
  8         7.1747495897e-02
  9         5.1867014307e-02
 10        -3.2832875251e-04
 11         3.5334075227e-03
 12         2.3316202937e-03
 13         5.0417473250e-03
 14         2.3159064564e-03
 15         6.2418791372e-03
 16         3.9303473460e-02
 17         3.1628731337e-02
 18         2.4416289423e-02
 19        -1.2634181438e-02
 20         8.3690150127e-02
 21        -1.6958644010e-01
 22        -8.7355498496e-02
 23        -4.0723292275e-01
 24        -3.2469287668e-01
 25        -3.8619969428e-01
 26        -6.3201928921e-02
 27        -2.7839340583e-01
 28        -2.1661077534e-01
 29         1.4514537813e-03
 30         2.8388532214e-02
 31         1.7625223635e-02
 32         7.9373230900e-03
 33         5.8150887393e-03
 34         2.6276910437e-02
 35         1.4183053463e-01
 36         1.1173940403e-01
 37         1.3308842506e-01
 38         1.0316686852e-01
 Sym= A
 Ene=        -3.1341775297e-01
 Spin= Alpha
 Occup=         2.0000000000e+00
  1         2.9380694414e-03
  2        -8.1315670442e-03
  3         5.9272638082e-01
  4        -6.0129171366e-03
  5         8.0639079316e-03
  6        -8.6781596066e-03
  7         4.5952909456e-01
  8        -3.8357107452e-03
  9         6.5222497098e-03
 10         2.0114994839e-03
 11        -1.8350554502e-03
 12        -2.6748453884e-04
 13         2.5041566783e-02
 14         1.9405147422e-02
 15         3.3446374203e-04
 16         2.9109473139e-03
 17         5.9095143636e-04
 18        -1.8980730230e-03
 19        -1.4045812928e-03
 20        -3.4320413397e-03
 21         6.2023442767e-03
 22        -1.3107151995e-01
 23         2.0671880916e-01
 24        -2.4320841903e-02
 25        -7.3487682161e-03
 26        -1.1361067025e-01
 27         1.6523892015e-01
 28        -1.2706321135e-02
 29         6.4222687708e-03
 30        -1.6837823523e-02
 31         3.3861551903e-03
 32         4.0895753741e-03
 33         3.6001155429e-03
 34        -5.2196268108e-03
 35         3.4205406339e-03
 36         5.2717193606e-03
 37        -3.7895605487e-02
 38         5.7640769721e-02
 Sym= A
 Ene=        -2.8689259111e-01
 Spin= Alpha
 Occup=         2.0000000000e+00
  1         2.6262103926e-03
  2        -4.5257458265e-03
  3        -2.0510797781e-01
  4        -6.7252094528e-02
  5         6.8003842942e-03
  6        -4.1442841874e-02
  7        -1.4173087266e-01
  8        -6.2713649095e-02
  9        -9.1517882408e-04
 10         2.4757338374e-03
 11        -4.9635164824e-03
 12         1.7352525496e-03
 13        -5.3618507658e-03
 14        -8.1683227111e-03
 15        -2.3258088153e-03
 16         7.8651280736e-03
 17         5.1763403488e-03
 18        -1.8052389026e-02
 19         9.0009963160e-02
 20         8.5364620627e-04
 21        -8.7374004856e-03
 22        -5.8365449558e-01
 23         1.4431284655e-01
 24        -1.0489341848e-01
 25         3.0028376834e-02
 26        -4.5791061992e-01
 27         1.0162437150e-01
 28        -8.1554527758e-02
 29         5.5016578927e-03
 30        -1.2342872531e-02
 31         2.3505220833e-03
 32         2.1913210812e-02
 33         2.0365428495e-02
 34        -5.8136453012e-04
 35        -2.2569235556e-03
 36         3.7200857803e-03
 37         1.1430103822e-02
 38        -6.6871109086e-02
 Sym= A
 Ene=         5.0689705605e-02
 Spin= Alpha
 Occup=         0.0000000000e+00
  1         9.0128302187e-02
  2        -1.2329198765e-01
  3        -4.2214969800e-02
  4        -1.5867803701e-01
  5        -1.5660329778e-01
  6        -1.0513971878e+00
  7        -5.3306801548e-02
  8        -2.7106894085e-01
  9        -2.8086661032e-01
 10         4.7134175359e-02
 11         2.7139309235e-02
 12         2.9517758231e-02
 13        -2.3914490242e-03
 14        -1.8327277563e-03
 15        -7.3489362645e-03
 16         9.0711105916e-02
 17         9.0392072923e-01
 18         7.8582622356e-02
 19         6.5785911094e-01
 20         5.8855342828e-02
 21        -8.9496902026e-02
 22         7.4483435647e-02
 23         9.1323680980e-02
 24         8.9679166628e-02
 25        -6.4224715870e-01
 26         7.7250907927e-02
 27         1.5982945694e-01
 28         1.7592340779e-01
 29         2.8071031770e-02
 30         1.4443065768e-02
 31         1.6653047922e-02
 32        -6.2382977745e-03
 33        -2.0500155637e-03
 34        -4.2693059515e-03
 35         5.5641134786e-02
 36         5.6676574011e-01
 37         3.8782033512e-02
 38         3.7700490709e-01
 Sym= A
 Ene=         9.8348233204e-02
 Spin= Alpha
 Occup=         0.0000000000e+00
  1         4.3914194811e-02
  2        -4.5223369557e-02
  3         6.8358333068e-02
  4        -4.8752414245e-02
  5        -1.8237988276e-01
  6        -6.1049336617e-01
  7         5.2558099563e-02
  8        -7.5196142099e-02
  9        -2.9580917545e-01
 10         2.3122324622e-02
 11         2.4514901304e-02
 12         1.4298783949e-02
 13        -1.7549263055e-04
 14         3.4425466899e-03
 15        -7.2562914969e-03
 16         7.7413812086e-02
 17         7.8634799450e-01
 18         4.4196881192e-02
 19         2.2933895273e-01
 20        -7.6501682432e-02
 21         8.9985571921e-02
 22         4.6635501725e-02
 23        -9.5152732524e-02
 24        -2.4679265208e-01
 25         9.8616387048e-01
 26         4.2151996837e-02
 27        -1.5526396375e-01
 28        -4.2514499677e-01
 29        -4.0233032405e-02
 30        -3.6037111405e-02
 31        -2.3099286935e-02
 32         1.9393808831e-03
 33        -2.5480594849e-03
 34         1.0371073316e-02
 35        -1.0518748642e-01
 36        -1.1905824679e+00
 37        -5.9265840010e-02
 38        -3.6832034819e-01
 Sym= A
 Ene=         1.4939159818e-01
 Spin= Alpha
 Occup=         0.0000000000e+00
  1         1.7197516810e-02
  2        -1.5606404093e-02
  3         7.1965369192e-02
  4        -3.0063834093e-01
  5         2.4797987490e-01
  6        -2.7592956926e-01
  7         6.1145241248e-02
  8        -5.2249727967e-01
  9         4.6868077223e-01
 10         5.2620746262e-03
 11        -1.2628011664e-03
 12         1.9471264532e-02
 13        -2.7429680836e-04
 14         4.4675320523e-03
 15        -9.3150350936e-04
 16        -7.8974461138e-02
 17        -9.4766562788e-01
 18         1.5195951430e-01
 19         1.4786611971e+00
 20        -1.4533980848e-02
 21        -1.2817992602e-02
 22         7.9460599875e-02
 23        -1.1530458881e-01
 24        -5.6090781871e-03
 25         3.2054433825e-01
 26         2.5728848813e-02
 27        -1.6816309083e-01
 28         3.4353923310e-03
 29        -7.8758065249e-03
 30        -1.7168895712e-02
 31        -1.7553173680e-02
 32        -3.1181532692e-03
 33        -4.1404068502e-03
 34         5.6217922716e-03
 35        -1.7198515701e-02
 36        -5.7074464365e-02
 37        -5.6156934509e-02
 38        -5.2809544834e-01
 Sym= A
 Ene=         1.9340202621e-01
 Spin= Alpha
 Occup=         0.0000000000e+00
  1         6.4642405684e-03
  2        -5.5063086263e-02
  3        -1.5476370290e-01
  4        -1.7820630489e-02
  5         1.5061028192e-01
  6         1.3031496441e-01
  7        -1.5888950002e-01
  8        -7.2157732880e-02
  9         2.2915844350e-01
 10         8.9485849019e-04
 11        -2.0955446348e-02
 12        -8.7112478636e-03
 13        -4.8064044189e-03
 14        -7.5057693438e-03
 15         6.8548366750e-03
 16        -6.4359130484e-02
 17        -4.6502618730e-01
 18         1.0800444449e-02
 19         5.3580642291e-02
 20         3.1566507801e-02
 21        -5.6709051810e-02
 22         1.1752694048e-01
 23         2.8027509785e-01
 24        -2.5734382284e-01
 25        -3.7317330257e-01
 26         2.5869525320e-01
 27         4.9400948771e-01
 28        -4.7970312445e-01
 29         5.7546601374e-03
 30         4.4914522087e-04
 31         1.7257056320e-02
 32        -7.2252643925e-03
 33         1.0217627873e-03
 34         1.3145920102e-04
 35        -8.6635843183e-02
 36        -9.1625574321e-01
 37         1.6499192833e-01
 38         1.5503727825e+00
 Sym= A
 Ene=         7.4251436120e-01
 Spin= Alpha
 Occup=         0.0000000000e+00
  1        -3.3491390663e-04
  2         2.0211171745e-02
  3        -6.0612891721e-02
  4        -3.3751448592e-02
  5         1.2647681822e-01
  6        -4.1012969427e-02
  7         7.0579989644e-03
  8        -2.5418646852e-01
  9         3.3408768890e-01
 10         2.5401253588e-02
 11         1.3443354387e-01
 12        -1.3593564495e-01
 13         2.0927616745e-04
 14         3.1275756463e-03
 15        -2.6068165326e-02
 16        -7.8898117983e-01
 17         5.4615570160e-01
 18         6.2843526707e-01
 19        -5.0970298272e-01
 20         3.4359311864e-03
 21         5.0349685067e-02
 22        -2.1039628698e-01
 23         2.9163921171e-03
 24         3.9929041099e-02
 25        -1.6070119495e-01
 26         7.8899477163e-02
 27        -1.0685510314e-01
 28         2.2916432292e-01
 29        -1.6665869943e-02
 30        -3.7069752849e-02
 31         9.6534728465e-02
 32        -3.4119403955e-02
 33        -7.2263167817e-03
 34         1.7733471899e-02
 35         4.5694990042e-01
 36        -2.8203450967e-01
 37        -3.6470536196e-01
 38         4.1951862003e-01
 Sym= A
 Ene=         8.0184146443e-01
 Spin= Alpha
 Occup=         0.0000000000e+00
  1        -9.8081551901e-04
  2         4.7117622916e-02
  3        -1.4673574700e-01
  4        -4.5949508534e-03
  5        -1.0667679306e-01
  6        -4.6246545908e-02
  7         1.0349732306e-01
  8         2.0691802248e-01
  9        -5.4294320570e-02
 10         3.5553146191e-02
 11        -7.3504365314e-02
 12         9.6032086806e-02
 13         1.4120999448e-02
 14         2.1844860549e-04
 15         3.4334668339e-02
 16         3.2195415715e-01
 17        -3.2589351247e-01
 18        -4.4712338549e-01
 19         2.6741490726e-01
 20         6.5181346737e-03
 21        -1.9353938705e-01
 22         1.0917689002e-01
 23        -5.5337983773e-03
 24         1.2328822615e-01
 25         3.4696746775e-01
 26        -2.3840909952e-01
 27        -2.1169329768e-01
 28         3.0290378037e-01
 29        -7.2339763515e-02
 30        -1.7730647185e-01
 31         1.0177124960e-01
 32        -3.8128445313e-02
 33        -2.8546634604e-02
 34         3.7499111088e-02
 35         8.5553045796e-01
 36        -6.8981463532e-01
 37        -5.2185678085e-01
 38         3.1550011857e-01
 Sym= A
 Ene=         8.4130157946e-01
 Spin= Alpha
 Occup=         0.0000000000e+00
  1         1.7910346783e-02
  2        -3.4286364535e-02
  3        -3.4244514360e-01
  4        -5.4003205377e-01
  5        -3.4887418443e-01
  6         8.7657302621e-02
  7         4.1637620117e-01
  8         3.7707905309e-01
  9         2.5775070917e-01
 10        -6.7672596659e-02
 11         8.7946840457e-02
 12         4.6268737209e-02
 13         1.0369379758e-02
 14         1.0265874082e-03
 15        -6.0656522552e-02
 16         3.4497895204e-01
 17        -2.4421643990e-01
 18         5.6375072149e-01
 19        -5.0531365489e-01
 20         1.2773744010e-02
 21        -9.2720263188e-02
 22         1.4349727236e-01
 23         2.3837445551e-01
 24         1.4006144504e-01
 25         1.6882191379e-01
 26        -1.4527341834e-01
 27        -1.0237530773e-01
 28        -5.4338512168e-02
 29        -5.7282566323e-02
 30         2.1267457250e-02
 31         1.4926006181e-03
 32         5.2865655385e-02
 33        -3.2402383914e-02
 34        -4.3353302966e-02
 35         2.4064973686e-01
 36        -1.0080934896e-01
 37         4.5151593961e-01
 38        -4.5034573347e-01
 Sym= A
 Ene=         8.4864446606e-01
 Spin= Alpha
 Occup=         0.0000000000e+00
  1         1.7661620339e-02
  2        -6.4176968326e-01
  3         1.2394219244e-01
  4         1.9437534094e-01
  5         2.2224758109e-01
  6         1.0140146423e+00
  7        -1.6274731844e-01
  8        -3.6260076395e-01
  9        -3.9032348020e-01
 10        -2.5061798110e-01
 11        -1.7613239052e-01
 12        -1.1997624542e-01
 13        -1.1025395302e-02
 14        -4.9974202191e-03
 15        -5.2303297565e-02
 16         5.0023937835e-01
 17        -3.9679113529e-01
 18         3.8234217645e-01
 19        -2.8327604062e-01
 20         2.1024553409e-03
 21         4.3847489449e-01
 22        -1.1528024190e-01
 23         3.5269314589e-01
 24         3.5716359469e-01
 25        -7.6566449808e-01
 26         8.0071728095e-02
 27        -4.1051983482e-01
 28        -3.4633991827e-01
 29         1.3781315107e-01
 30         1.3265068615e-01
 31         1.6982403675e-01
 32        -1.4106310825e-02
 33         1.2604034903e-02
 34         2.6243761547e-02
 35         4.4534940082e-02
 36        -9.3448906788e-02
 37        -2.0124521638e-01
 38         2.8079980814e-01
 Sym= A
 Ene=         8.7137507652e-01
 Spin= Alpha
 Occup=         0.0000000000e+00
  1         2.2763923953e-02
  2         8.8152185076e-03
  3         2.2758233701e-01
  4        -2.6424745787e-01
  5        -2.7972371885e-01
  6        -1.1939327647e-01
  7        -2.9809801252e-01
  8         1.7642911972e-01
  9         1.9716591176e-01
 10        -1.9767558627e-02
 11         2.7579210192e-02
 12         1.0637950632e-01
 13        -1.3179535814e-02
 14         3.8508025141e-03
 15        -1.6881152251e-02
 16         4.1401003020e-01
 17        -4.2658757754e-01
 18         1.7871079581e-01
 19        -5.0696725928e-02
 20        -1.4034284446e-02
 21        -1.3802248177e-01
 22        -6.5187016319e-01
 23        -3.3812260508e-02
 24        -3.4592255967e-01
 25         2.1247699136e-01
 26         6.6043720729e-01
 27        -6.9426575194e-02
 28         3.0085806145e-01
 29        -3.6598479877e-02
 30        -7.7352199354e-02
 31        -7.4750312297e-02
 32        -5.3946615588e-02
 33         2.4849987316e-02
 34         3.3264730851e-02
 35        -1.7019146250e-01
 36         4.6712557372e-02
 37        -3.8760264974e-01
 38         4.8793792477e-01
 Sym= A
 Ene=         8.8919342815e-01
 Spin= Alpha
 Occup=         0.0000000000e+00
  1         2.0015390529e-02
  2        -1.2747036404e-01
  3        -5.5326316294e-01
  4         1.3540580435e-01
  5        -3.5222143743e-02
  6         1.0669613517e-01
  7         5.5990387559e-01
  8        -3.0640450412e-01
  9        -2.5734429446e-02
 10        -7.4553811402e-02
 11         3.6491783584e-03
 12         1.8113008458e-02
 13         1.1802448096e-02
 14         4.7531727957e-03
 15        -4.2185746611e-02
 16         2.6858610521e-01
 17        -1.9568239727e-01
 18         3.3181929102e-01
 19        -2.2385485446e-01
 20        -2.9003469136e-02
 21         1.8748083048e-01
 22         1.8448415902e-01
 23        -4.3888703666e-01
 24        -1.9341949185e-01
 25        -2.0752262353e-01
 26        -2.7824217779e-01
 27         2.2659058462e-01
 28         1.1613832212e-01
 29         8.7947567023e-02
 30        -2.3343443087e-02
 31        -2.6229021743e-02
 32        -5.1975746940e-02
 33         4.7875626983e-02
 34         4.9645503041e-02
 35        -4.3503160488e-01
 36         3.8946221957e-01
 37        -5.6311818266e-01
 38         3.4748390688e-01
 Sym= A
 Ene=         9.2353569389e-01
 Spin= Alpha
 Occup=         0.0000000000e+00
  1        -5.4260114743e-04
  2         4.6898855888e-01
  3        -5.2193039858e-02
  4        -2.9950135410e-01
  5        -8.3858229732e-02
  6        -8.4485932667e-01
  7         1.6027612380e-02
  8         4.4786858414e-01
  9         1.4117708748e-01
 10         1.9496337095e-01
 11         1.2250863724e-01
 12         1.1865671992e-01
 13         1.8143242498e-03
 14        -7.5509425687e-03
 15         3.7965483431e-02
 16        -2.5400463712e-01
 17         3.0125138938e-01
 18        -2.6269877717e-01
 19         1.1638551139e-01
 20        -1.4432966763e-02
 21         6.0305881530e-01
 22         1.1617193987e-01
 23         4.0563887192e-01
 24         8.9243905608e-02
 25        -9.9255578433e-01
 26        -1.7586366131e-01
 27        -6.7064755801e-01
 28        -1.9622078420e-01
 29         2.4322780190e-01
 30         1.5591702948e-01
 31         1.2548058635e-01
 32        -5.1108155596e-02
 33         4.2173174218e-02
 34         5.5958169685e-02
 35        -4.5662488710e-01
 36         4.3597005688e-01
 37        -5.1260030279e-01
 38         2.8135093759e-01
 Sym= A
 Ene=         1.0481367855e+00
 Spin= Alpha
 Occup=         0.0000000000e+00
  1         6.2979932554e-03
  2         3.0337942813e-01
  3        -5.7269066266e-01
  4         6.3828501150e-03
  5         4.2105399963e-01
  6        -8.3338489431e-01
  7         7.6369105513e-01
  8         5.3553886666e-02
  9        -6.6905361974e-01
 10         7.9573004160e-02
 11         4.0960327001e-02
 12         1.1396434985e-01
 13        -4.1085746154e-02
 14         4.6143399805e-02
 15         4.4952786981e-02
 16        -6.6430043726e-02
 17         5.3057189141e-01
 18        -2.9500867225e-01
 19         5.0961902726e-01
 20         2.4063058262e-03
 21         7.6716276250e-02
 22        -5.3462410338e-01
 23         9.6635921766e-02
 24         6.0502633566e-02
 25         2.1298247473e-02
 26         6.7982468535e-01
 27        -1.0113110884e-01
 28        -5.4731133625e-02
 29         4.9899784571e-02
 30         1.2236093171e-02
 31         5.2601055601e-03
 32         6.1384590970e-02
 33        -5.7652299718e-02
 34        -3.2086835008e-02
 35         6.8424591686e-02
 36        -3.4800855049e-02
 37         2.5389594344e-01
 38        -5.5942066527e-01
 Sym= A
 Ene=         1.0610950314e+00
 Spin= Alpha
 Occup=         0.0000000000e+00
  1         5.2710099236e-03
  2        -3.2693818906e-02
  3         1.8696521263e-01
  4        -6.0213727286e-01
  5         6.8186157389e-01
  6         8.9915278327e-02
  7        -2.5879194905e-01
  8         9.4856916859e-01
  9        -1.1633427115e+00
 10        -2.0829675924e-02
 11         6.2625396932e-03
 12         1.1838367054e-02
 13         1.7560970661e-02
 14        -1.7057839624e-02
 15        -2.5998203362e-02
 16         5.0284392219e-02
 17         8.2917320063e-01
 18         2.0009790025e-01
 19        -1.1745491156e+00
 20        -6.9291027776e-03
 21        -4.1064424298e-02
 22         1.6834052621e-01
 23        -2.3488217071e-01
 24        -6.9452928125e-02
 25         5.6060969777e-02
 26        -2.7166052750e-01
 27         2.5949485267e-01
 28         1.1122739040e-01
 29        -4.1441455886e-02
 30        -3.3342624170e-02
 31        -5.1829849038e-03
 32        -3.8524128944e-03
 33         2.5308391484e-02
 34         1.0959465620e-02
 35        -8.2133574333e-04
 36         3.0498540333e-02