[Molden Format]
[Atoms] (AU)
O    1    8          -2.0845268129        -1.4250648748         0.7474783904
H    2    1          -2.0845268129        -1.4250648748         2.5801361576
H    3    1          -2.0845268129         0.3597196620         0.3136643416
O    4    8           2.1050986299         1.4244879140        -0.7496845968
H    5    1           2.3883177374         1.3134127612        -2.5550085596
H    6    1           1.4542462241        -0.2389107609        -0.3037778426
[GTO]
  1 0
 s    6  1.00
     5484.6717000000         0.0018311000
      825.2349500000         0.0139501000
      188.0469600000         0.0684451000
       52.9645000000         0.2327143000
       16.8975700000         0.4701930000
        5.7996353000         0.3585209000
 s    3  1.00
       15.5396160000        -0.1107775000
        3.5999336000        -0.1480263000
        1.0137618000         1.1307670000
 p    3  1.00
       15.5396160000         0.0708743000
        3.5999336000         0.3397528000
        1.0137618000         0.7271586000
 s    1  1.00
        0.2700058000         1.0000000000
 p    1  1.00
        0.2700058000         1.0000000000
 d    1  1.00
        0.8000000000         1.0000000000

  2 0
 s    3  1.00
       18.7311370000         0.0334946000
        2.8253937000         0.2347269500
        0.6401217000         0.8137573300
 s    1  1.00
        0.1612778000         1.0000000000

  3 0
 s    3  1.00
       18.7311370000         0.0334946000
        2.8253937000         0.2347269500
        0.6401217000         0.8137573300
 s    1  1.00
        0.1612778000         1.0000000000

  4 0
 s    6  1.00
     5484.6717000000         0.0018311000
      825.2349500000         0.0139501000
      188.0469600000         0.0684451000
       52.9645000000         0.2327143000
       16.8975700000         0.4701930000
        5.7996353000         0.3585209000
 s    3  1.00
       15.5396160000        -0.1107775000
        3.5999336000        -0.1480263000
        1.0137618000         1.1307670000
 p    3  1.00
       15.5396160000         0.0708743000
        3.5999336000         0.3397528000
        1.0137618000         0.7271586000
 s    1  1.00
        0.2700058000         1.0000000000
 p    1  1.00
        0.2700058000         1.0000000000
 d    1  1.00
        0.8000000000         1.0000000000

  5 0
 s    3  1.00
       18.7311370000         0.0334946000
        2.8253937000         0.2347269500
        0.6401217000         0.8137573300
 s    1  1.00
        0.1612778000         1.0000000000

  6 0
 s    3  1.00
       18.7311370000         0.0334946000
        2.8253937000         0.2347269500
        0.6401217000         0.8137573300
 s    1  1.00
        0.1612778000         1.0000000000

[MO]
 Sym= A
 Ene=        -1.9157414223e+01
 Spin= Alpha
 Occup=         2.0000000000e+00
  1         9.9283249966e-01
  2         2.6153170125e-02
  3        -5.2711077289e-06
  4         8.0982455928e-04
  5         6.7993189683e-04
  6         1.0466943452e-02
  7         1.4380551659e-04
  8         7.4739676528e-05
  9        -4.0947244624e-05
 10        -7.7916878565e-03
 11        -7.8381341239e-03
 12        -7.8546184834e-03
 13         1.2415127639e-05
 14        -1.3172829100e-05
 15         2.1454245445e-06
 16         3.5260996597e-04
 17        -1.0176004306e-03
 18         3.2618271923e-04
 19        -1.0314976556e-03
 20        -3.2793778698e-05
 21        -1.4286991195e-04
 22        -3.5826521646e-06
 23         1.4709486786e-05
 24        -1.6888047615e-05
 25         7.1954718003e-04
 26        -9.5945829927e-05
 27        -2.2864235564e-04
 28         1.0350479399e-04
 29        -1.0799353197e-04
 30        -4.7101793549e-05
 31        -9.7377451666e-05
 32         4.2686503294e-06
 33        -3.9541088772e-06
 34        -1.4671227831e-05
 35        -3.2678840580e-05
 36         9.0925551627e-05
 37        -8.3606463905e-05
 38        -6.6157538841e-04
 Sym= A
 Ene=        -1.9132012180e+01
 Spin= Alpha
 Occup=         2.0000000000e+00
  1        -2.0730602098e-05
  2        -9.2045675479e-05
  3         3.6123178997e-06
  4         3.6834981243e-06
  5         1.6841740570e-05
  6         4.6202069400e-04
  7         7.0549787078e-05
  8         7.1833256722e-05
  9        -8.6545031816e-05
 10        -4.6111062169e-05
 11        -7.6701829377e-05
 12        -5.8169731824e-05
 13        -2.0206894957e-05
 14        -3.5859398337e-06
 15         5.3464138255e-06
 16        -2.1370895643e-05
 17         8.2533032841e-05
 18         4.3555314623e-05
 19        -3.2934569880e-04
 20         9.9284007931e-01
 21         2.6174138459e-02
 22        -1.5389468702e-04
 23        -7.7887190873e-04
 24        -6.7051750582e-04
 25         1.0404636166e-02
 26        -7.2156735782e-05
 27        -1.0217916371e-04
 28         3.0554015931e-05
 29        -7.7832674037e-03
 30        -7.8029119727e-03
 31        -7.8204517805e-03
 32        -3.3151233128e-06
 33         4.4058644462e-06
 34         4.2895195249e-06
 35         3.5733605998e-04
 36        -1.0124592132e-03
 37         3.6467328984e-04
 38        -1.2058829025e-03
 Sym= A
 Ene=        -1.0172184304e+00
 Spin= Alpha
 Occup=         2.0000000000e+00
  1         2.0323110308e-01
  2        -4.5333429210e-01
  3        -3.9260050961e-03
  4        -9.5059761302e-02
  5        -7.4720182230e-02
  6        -4.3284916866e-01
  7        -4.7763742757e-03
  8        -4.7294172761e-02
  9        -3.4137177554e-02
 10         9.6886821418e-03
 11        -1.5337637377e-02
 12        -1.6230188780e-02
 13        -5.8880837645e-04
 14         4.5159065722e-04
 15         2.0002929268e-03
 16        -1.3287802784e-01
 17        -5.3369710078e-03
 18        -1.3206056989e-01
 19        -8.1216082794e-04
 20         5.0335544886e-02
 21        -1.1035037344e-01
 22         8.0131360308e-03
 23         2.5250402107e-02
 24         1.5672363563e-02
 25        -1.0626493610e-01
 26         7.7402061848e-03
 27         1.1254433105e-02
 28         6.4889774008e-03
 29         1.1742595720e-03
 30        -2.1709633418e-03
 31        -2.8702084361e-03
 32        -3.0912548214e-03
 33         1.7539802847e-03
 34         2.0042338709e-04
 35        -3.1368250939e-02
 36        -1.7601565177e-03
 37        -3.9111247239e-02
 38        -6.5998123887e-03
 Sym= A
 Ene=        -9.8983653815e-01
 Spin= Alpha
 Occup=         2.0000000000e+00
  1         5.3762861116e-02
  2        -1.2224165137e-01
  3         3.1755657136e-03
  4        -2.2542345721e-02
  5        -2.3346903729e-02
  6        -1.1464184153e-01
  7         6.3709969389e-03
  8        -1.1696206173e-02
  9        -1.2189150042e-02
 10         3.8817746547e-03
 11        -4.7267005567e-03
 12        -5.3057993648e-03
 13         1.3640362456e-03
 14        -6.1290327653e-04
 15         1.4364094601e-04
 16        -3.7849772600e-02
 17        -2.4755129988e-04
 18        -3.0968249069e-02
 19         5.9553729314e-03
 20        -2.0417553861e-01
 21         4.5454489268e-01
 22        -1.9139252995e-02
 23        -9.1705095766e-02
 24        -7.6024002880e-02
 25         4.3896582624e-01
 26        -1.0721491217e-02
 27        -4.7053988523e-02
 28        -3.4188925158e-02
 29        -7.4874874561e-03
 30         1.2266056729e-02
 31         1.5844198195e-02
 32         9.0857514051e-03
 33        -5.5687029113e-03
 34        -4.6563807831e-05
 35         1.3595417079e-01
 36         7.8721011480e-03
 37         1.2879610080e-01
 38        -5.7559838621e-03
 Sym= A
 Ene=        -5.3693239667e-01
 Spin= Alpha
 Occup=         2.0000000000e+00
  1         1.9989276717e-03
  2        -8.9749276372e-03
  3         1.9379292396e-02
  4         2.9209857440e-01
  5        -3.8052898415e-01
  6         3.7307842251e-03
  7         1.6945608403e-02
  8         1.5801009969e-01
  9        -2.0299392621e-01
 10         2.3230805187e-04
 11         3.0251247677e-02
 12        -3.4111893824e-02
 13         2.5381285744e-03
 14        -8.0660771844e-04
 15        -9.3605022394e-03
 16        -2.2095099257e-01
 17        -1.2281825212e-01
 18         2.1275149742e-01
 19         1.1701908267e-01
 20         6.5614942797e-03
 21        -1.9583642580e-02
 22        -7.7879201343e-02
 23        -9.3406644169e-02
 24         1.3850269283e-01
 25        -1.1919730025e-02
 26        -4.9688180315e-02
 27        -5.0991635182e-02
 28         7.2179846337e-02
 29         2.2553639976e-03
 30         7.8216686464e-03
 31        -1.4095463825e-02
 32         6.7164785029e-03
 33         1.3416020663e-03
 34        -3.6771139146e-03
 35        -8.7264651137e-02
 36        -4.3955496893e-02
 37         8.6701625458e-02
 38         4.5195402611e-02
 Sym= A
 Ene=        -5.0796262835e-01
 Spin= Alpha
 Occup=         2.0000000000e+00
  1         9.3574945924e-03
  2        -2.4608250305e-02
  3         4.9434585223e-02
  4        -1.2713038688e-01
  5         1.5546607905e-01
  6        -2.9580488835e-02
  7         3.9772150941e-02
  8        -6.6864023653e-02
  9         8.3418152013e-02
 10         3.0178479200e-03
 11        -1.5093474039e-02
 12         1.1443783411e-02
 13         4.2385251585e-03
 14         9.9099330667e-04
 15         3.7119328769e-03
 16         8.4554235788e-02
 17         5.9053165187e-02
 18        -9.0803603222e-02
 19        -4.7050189414e-02
 20        -5.1450171495e-03
 21         9.4896571358e-03
 22        -1.4792721706e-01
 23        -2.5488828039e-01
 24         3.7917035052e-01
 25         2.6503623660e-02
 26        -7.7857961263e-02
 27        -1.3834045497e-01
 28         2.0342544843e-01
 29         2.1556863631e-03
 30         2.6874794729e-02
 31        -3.1741460592e-02
 32         1.2576515778e-02
 33         1.8309401859e-03
 34        -1.1019254242e-02
 35        -2.1949086687e-01
 36        -1.3327161650e-01
 37         2.1279512379e-01
 38         1.1788587962e-01
 Sym= A
 Ene=        -3.9277126905e-01
 Spin= Alpha
 Occup=         2.0000000000e+00
  1         8.2168227785e-02
  2        -1.6661567790e-01
  3        -3.6797097124e-02
  4         4.2830225049e-01
  5         3.2756330824e-01
  6        -3.8050867500e-01
  7        -2.1159699623e-02
  8         2.8803426137e-01
  9         2.2145061802e-01
 10        -1.8265692573e-03
 11         3.0819965174e-02
 12         1.7480246106e-02
 13        -2.2194239648e-04
 14         5.6150885388e-05
 15         2.7824087306e-02
 16         1.3646973661e-01
 17         1.0344013460e-01
 18         1.4082824639e-01
 19         1.1938108835e-01
 20        -1.9436011746e-02
 21         3.0576240414e-02
 22        -7.0677962936e-03
 23         9.6169799303e-02
 24         6.5060018576e-02
 25         1.1998682045e-01
 26        -9.7781182217e-03
 27         5.2719271027e-02
 28         5.3050631895e-02
 29        -2.6125679298e-03
 30        -9.6904610359e-03
 31        -7.0777410865e-03
 32        -5.4688772335e-04
 33        -1.3719756970e-03
 34        -6.6307534985e-03
 35        -2.9121180577e-02
 36        -1.8525766150e-02
 37        -3.6132619936e-02
 38        -7.9525135517e-02
 Sym= A
 Ene=        -3.6907820933e-01
 Spin= Alpha
 Occup=         2.0000000000e+00
  1         2.2286657119e-02
  2        -5.2881786287e-02
  3         1.0519300571e-01
  4         9.3689389478e-02
  5         8.9530069639e-02
  6        -7.9974612669e-02
  7         7.7712574002e-02
  8         7.1747502846e-02
  9         5.1867020427e-02
 10        -3.2832846948e-04
 11         3.5334080230e-03
 12         2.3316213562e-03
 13         5.0417480401e-03
 14         2.3159066390e-03
 15         6.2418800873e-03
 16         3.9303478785e-02
 17         3.1628740216e-02
 18         2.4416290862e-02
 19        -1.2634176967e-02
 20         8.3690149217e-02
 21        -1.6958643903e-01
 22        -8.7355623502e-02
 23        -4.0723294227e-01
 24        -3.2469280950e-01
 25        -3.8619968656e-01
 26        -6.3202013259e-02
 27        -2.7839341995e-01
 28        -2.1661072767e-01
 29         1.4514573266e-03
 30         2.8388534931e-02
 31         1.7625215882e-02
 32         7.9373335006e-03
 33         5.8150953766e-03
 34         2.6276906616e-02
 35         1.4183053228e-01
 36         1.1173940152e-01
 37         1.3308842318e-01
 38         1.0316685796e-01
 Sym= A
 Ene=        -3.1341775446e-01
 Spin= Alpha
 Occup=         2.0000000000e+00
  1         2.9380696185e-03
  2        -8.1315672251e-03
  3         5.9272637912e-01
  4        -6.0129144672e-03
  5         8.0639089263e-03
  6        -8.6781617433e-03
  7         4.5952909511e-01
  8        -3.8357085561e-03
  9         6.5222507224e-03
 10         2.0114995024e-03
 11        -1.8350552616e-03
 12        -2.6748450388e-04
 13         2.5041566969e-02
 14         1.9405147434e-02
 15         3.3446380606e-04
 16         2.9109475628e-03
 17         5.9095303546e-04
 18        -1.8980725940e-03
 19        -1.4045784761e-03
 20        -3.4320440378e-03
 21         6.2023475792e-03
 22        -1.3107149647e-01
 23         2.0671883294e-01
 24        -2.4320817675e-02
 25        -7.3487479099e-03
 26        -1.1361065138e-01
 27         1.6523893555e-01
 28        -1.2706300404e-02
 29         6.4222705169e-03
 30        -1.6837826705e-02
 31         3.3861530824e-03
 32         4.0895716566e-03
 33         3.6001134958e-03
 34        -5.2196266368e-03
 35         3.4205360716e-03
 36         5.2717172049e-03
 37        -3.7895610926e-02
 38         5.7640753790e-02
 Sym= A
 Ene=        -2.8689258744e-01
 Spin= Alpha
 Occup=         2.0000000000e+00
  1         2.6262123124e-03
  2        -4.5257515485e-03
  3        -2.0510797294e-01
  4        -6.7252089773e-02
  5         6.8003926494e-03
  6        -4.1442848303e-02
  7        -1.4173086746e-01
  8        -6.2713645021e-02
  9        -9.1517950465e-04
 10         2.4757334719e-03
 11        -4.9635170485e-03
 12         1.7352525770e-03
 13        -5.3618504311e-03
 14        -8.1683232400e-03
 15        -2.3258090193e-03
 16         7.8651332533e-03
 17         5.1763468923e-03
 18        -1.8052389256e-02
 19         9.0009963358e-02
 20         8.5364622292e-04
 21        -8.7374008973e-03
 22        -5.8365451219e-01
 23         1.4431288961e-01
 24        -1.0489327945e-01
 25         3.0028377817e-02
 26        -4.5791063470e-01
 27         1.0162440544e-01
 28        -8.1554416270e-02
 29         5.5016704802e-03
 30        -1.2342876433e-02
 31         2.3505128230e-03
 32         2.1913211006e-02
 33         2.0365425682e-02
 34        -5.8137066577e-04
 35        -2.2569228247e-03
 36         3.7200860217e-03
 37         1.1430104477e-02
 38        -6.6871110304e-02
 Sym= A
 Ene=         5.0689708541e-02
 Spin= Alpha
 Occup=         0.0000000000e+00
  1         9.0128305956e-02
  2        -1.2329198948e-01
  3        -4.2214962034e-02
  4        -1.5867803227e-01
  5        -1.5660329997e-01
  6        -1.0513972499e+00
  7        -5.3306800040e-02
  8        -2.7106894294e-01
  9        -2.8086661504e-01
 10         4.7134177576e-02
 11         2.7139311997e-02
 12         2.9517761197e-02
 13        -2.3914495616e-03
 14        -1.8327273283e-03
 15        -7.3489356972e-03
 16         9.0711108359e-02
 17         9.0392077751e-01
 18         7.8582623111e-02
 19         6.5785913971e-01
 20         5.8855338520e-02
 21        -8.9496892484e-02
 22         7.4483468845e-02
 23         9.1323672662e-02
 24         8.9679134646e-02
 25        -6.4224712150e-01
 26         7.7250971079e-02
 27         1.5982945502e-01
 28         1.7592336137e-01
 29         2.8071029383e-02
 30         1.4443066268e-02
 31         1.6653048624e-02
 32        -6.2383007084e-03
 33        -2.0500182166e-03
 34        -4.2693032898e-03
 35         5.5641125201e-02
 36         5.6676569994e-01
 37         3.8782027918e-02
 38         3.7700488106e-01
 Sym= A
 Ene=         9.8348237572e-02
 Spin= Alpha
 Occup=         0.0000000000e+00
  1         4.3914189099e-02
  2        -4.5223359564e-02
  3         6.8358330937e-02
  4        -4.8752410118e-02
  5        -1.8237988262e-01
  6        -6.1049331440e-01
  7         5.2558103223e-02
  8        -7.5196126382e-02
  9        -2.9580917053e-01
 10         2.3122323652e-02
 11         2.4514900866e-02
 12         1.4298781236e-02
 13        -1.7549156912e-04
 14         3.4425473350e-03
 15        -7.2562912418e-03
 16         7.7413799195e-02
 17         7.8634796766e-01
 18         4.4196874958e-02
 19         2.2933890381e-01
 20        -7.6501685428e-02
 21         8.9985576623e-02
 22         4.6635428453e-02
 23        -9.5152758474e-02
 24        -2.4679265475e-01
 25         9.8616390732e-01
 26         4.2151869746e-02
 27        -1.5526401014e-01
 28        -4.2514500676e-01
 29        -4.0233034285e-02
 30        -3.6037110609e-02
 31        -2.3099288592e-02
 32         1.9393843816e-03
 33        -2.5480530037e-03
 34         1.0371074961e-02
 35        -1.0518749071e-01
 36        -1.1905825126e+00
 37        -5.9265838114e-02
 38        -3.6832034773e-01
 Sym= A
 Ene=         1.4939160077e-01
 Spin= Alpha
 Occup=         0.0000000000e+00
  1         1.7197515532e-02
  2        -1.5606401246e-02
  3         7.1965367051e-02
  4        -3.0063834265e-01
  5         2.4797986866e-01
  6        -2.7592956318e-01
  7         6.1145243277e-02
  8        -5.2249728471e-01
  9         4.6868077271e-01
 10         5.2620753360e-03
 11        -1.2628014079e-03
 12         1.9471263718e-02
 13        -2.7429601119e-04
 14         4.4675328780e-03
 15        -9.3150349667e-04
 16        -7.8974463592e-02
 17        -9.4766564836e-01
 18         1.5195950930e-01
 19         1.4786612124e+00
 20        -1.4533981995e-02
 21        -1.2817987422e-02
 22         7.9460585768e-02
 23        -1.1530459736e-01
 24        -5.6090916447e-03
 25         3.2054434496e-01
 26         2.5728840463e-02
 27        -1.6816308908e-01
 28         3.4353982942e-03
 29        -7.8758090289e-03
 30        -1.7168893218e-02
 31        -1.7553171915e-02
 32        -3.1181542170e-03
 33        -4.1404078290e-03
 34         5.6217930831e-03
 35        -1.7198518482e-02
 36        -5.7074493724e-02
 37        -5.6156934056e-02
 38        -5.2809543323e-01
 Sym= A
 Ene=         1.9340203540e-01
 Spin= Alpha
 Occup=         0.0000000000e+00
  1         6.4642446420e-03
  2        -5.5063090030e-02
  3        -1.5476369956e-01
  4        -1.7820615697e-02
  5         1.5061028529e-01
  6         1.3031491951e-01
  7        -1.5888951315e-01
  8        -7.2157729113e-02
  9         2.2915846759e-01
 10         8.9485998755e-04
 11        -2.0955443995e-02
 12        -8.7112437486e-03
 13        -4.8064070161e-03
 14        -7.5057700508e-03
 15         6.8548389826e-03
 16        -6.4359128108e-02
 17        -4.6502617586e-01
 18         1.0800447475e-02
 19         5.3580662830e-02
 20         3.1566510521e-02
 21        -5.6709054973e-02
 22         1.1752689174e-01
 23         2.8027506036e-01
 24        -2.5734388174e-01
 25        -3.7317334033e-01
 26         2.5869517672e-01
 27         4.9400942750e-01
 28        -4.7970323510e-01
 29         5.7546598671e-03
 30         4.4914749316e-04
 31         1.7257057948e-02
 32        -7.2252659381e-03
 33         1.0217666527e-03
 34         1.3146226843e-04
 35        -8.6635834644e-02
 36        -9.1625574020e-01
 37         1.6499192580e-01
 38         1.5503728330e+00
 Sym= A
 Ene=         7.4251436304e-01
 Spin= Alpha
 Occup=         0.0000000000e+00
  1        -3.3491240540e-04
  2         2.0211179056e-02
  3        -6.0612869774e-02
  4        -3.3751431188e-02
  5         1.2647679281e-01
  6        -4.1013004128e-02
  7         7.0579707485e-03
  8        -2.5418650492e-01
  9         3.3408774730e-01
 10         2.5401256357e-02
 11         1.3443354534e-01
 12        -1.3593563791e-01
 13         2.0927229254e-04
 14         3.1275774403e-03
 15        -2.6068163555e-02
 16        -7.8898117035e-01
 17         5.4615565409e-01
 18         6.2843525803e-01
 19        -5.0970291565e-01
 20         3.4359339583e-03
 21         5.0349689350e-02
 22        -2.1039631270e-01
 23         2.9164060954e-03
 24         3.9929095939e-02
 25        -1.6070124636e-01
 26         7.8899565171e-02
 27        -1.0685506556e-01
 28         2.2916431958e-01
 29        -1.6665877762e-02
 30        -3.7069739248e-02
 31         9.6534734424e-02
 32        -3.4119405342e-02
 33        -7.2262794634e-03
 34         1.7733495854e-02
 35         4.5694991609e-01
 36        -2.8203451047e-01
 37        -3.6470536098e-01
 38         4.1951867421e-01
 Sym= A
 Ene=         8.0184147001e-01
 Spin= Alpha
 Occup=         0.0000000000e+00
  1        -9.8081225188e-04
  2         4.7117650013e-02
  3        -1.4673571469e-01
  4        -4.5949844555e-03
  5        -1.0667684919e-01
  6        -4.6246615320e-02
  7         1.0349728519e-01
  8         2.0691805032e-01
  9        -5.4294268443e-02
 10         3.5553154674e-02
 11        -7.3504350617e-02
 12         9.6032105473e-02
 13         1.4120998554e-02
 14         2.1844803470e-04
 15         3.4334665641e-02
 16         3.2195418156e-01
 17        -3.2589352905e-01
 18        -4.4712336217e-01
 19         2.6741490361e-01
 20         6.5181334649e-03
 21        -1.9353940853e-01
 22         1.0917692093e-01
 23        -5.5338004484e-03
 24         1.2328816349e-01
 25         3.4696750092e-01
 26        -2.3840904400e-01
 27        -2.1169325726e-01
 28         3.0290390645e-01
 29        -7.2339788271e-02
 30        -1.7730646722e-01
 31         1.0177124470e-01
 32        -3.8128452213e-02
 33        -2.8546570659e-02
 34         3.7499157493e-02
 35         8.5553043850e-01
 36        -6.8981461104e-01
 37        -5.2185681062e-01
 38         3.1550013995e-01
 Sym= A
 Ene=         8.4130158402e-01
 Spin= Alpha
 Occup=         0.0000000000e+00
  1         1.7910339004e-02
  2        -3.4286177193e-02
  3        -3.4244528842e-01
  4        -5.4003208807e-01
  5        -3.4887419692e-01
  6         8.7657010796e-02
  7         4.1637637355e-01
  8         3.7707913465e-01
  9         2.5775077864e-01
 10        -6.7672518675e-02
 11         8.7946891852e-02
 12         4.6268755681e-02
 13         1.0369387193e-02
 14         1.0265864250e-03
 15        -6.0656510090e-02
 16         3.4497873311e-01
 17        -2.4421623763e-01
 18         5.6375060057e-01
 19        -5.0531357859e-01
 20         1.2773742412e-02
 21        -9.2720392231e-02
 22         1.4349743297e-01
 23         2.3837432148e-01
 24         1.4006128573e-01
 25         1.6882215441e-01
 26        -1.4527353284e-01
 27        -1.0237514798e-01
 28        -5.4338380784e-02
 29        -5.7282609460e-02
 30         2.1267402312e-02
 31         1.4925646377e-03
 32         5.2865658751e-02
 33        -3.2402380364e-02
 34        -4.3353325461e-02
 35         2.4064968968e-01
 36        -1.0080927674e-01
 37         4.5151601992e-01
 38        -4.5034588303e-01
 Sym= A
 Ene=         8.4864447035e-01
 Spin= Alpha
 Occup=         0.0000000000e+00
  1         1.7661624452e-02
  2        -6.4176967971e-01
  3         1.2394211817e-01
  4         1.9437517647e-01
  5         2.2224748191e-01
  6         1.0140146495e+00
  7        -1.6274721361e-01
  8        -3.6260064635e-01
  9        -3.9032341065e-01
 10        -2.5061800216e-01
 11        -1.7613235852e-01
 12        -1.1997623130e-01
 13        -1.1025390910e-02
 14        -4.9974200411e-03
 15        -5.2303315948e-02
 16         5.0023946368e-01
 17        -3.9679117226e-01
 18         3.8234235142e-01
 19        -2.8327620710e-01
 20         2.1024601242e-03
 21         4.3847484264e-01
 22        -1.1527997144e-01
 23         3.5269329922e-01
 24         3.5716366360e-01
 25        -7.6566437501e-01
 26         8.0071441657e-02
 27        -4.1051995087e-01
 28        -3.4633991630e-01
 29         1.3781312568e-01
 30         1.3265069227e-01
 31         1.6982403265e-01
 32        -1.4106278386e-02
 33         1.2604032268e-02
 34         2.6243751346e-02
 35         4.4535078417e-02
 36        -9.3448974881e-02
 37        -2.0124503602e-01
 38         2.8079955721e-01
 Sym= A
 Ene=         8.7137507398e-01
 Spin= Alpha
 Occup=         0.0000000000e+00
  1         2.2763925217e-02
  2         8.8151692507e-03
  3         2.2758246211e-01
  4        -2.6424750196e-01
  5        -2.7972376694e-01
  6        -1.1939319993e-01
  7        -2.9809813408e-01
  8         1.7642914133e-01
  9         1.9716595523e-01
 10        -1.9767585562e-02
 11         2.7579204835e-02
 12         1.0637949717e-01
 13        -1.3179543568e-02
 14         3.8508042791e-03
 15        -1.6881156553e-02
 16         4.1401008155e-01
 17        -4.2658763254e-01
 18         1.7871085326e-01
 19        -5.0696733663e-02
 20        -1.4034274560e-02
 21        -1.3802247411e-01
 22        -6.5187028108e-01
 23        -3.3812103473e-02
 24        -3.4592230364e-01
 25         2.1247692304e-01
 26         6.6043733185e-01
 27        -6.9426645569e-02
 28         3.0085780444e-01
 29        -3.6598486805e-02
 30        -7.7352145087e-02
 31        -7.4750311574e-02
 32        -5.3946590379e-02
 33         2.4849971612e-02
 34         3.3264721801e-02
 35        -1.7019138727e-01
 36         4.6712494320e-02
 37        -3.8760243289e-01
 38         4.8793783015e-01
 Sym= A
 Ene=         8.8919343902e-01
 Spin= Alpha
 Occup=         0.0000000000e+00
  1         2.0015395914e-02
  2        -1.2747044511e-01
  3        -5.5326306789e-01
  4         1.3540585831e-01
  5        -3.5222153297e-02
  6         1.0669622987e-01
  7         5.5990376778e-01
  8        -3.0640461202e-01
  9        -2.5734435298e-02
 10        -7.4553853098e-02
 11         3.6491595311e-03
 12         1.8113009345e-02
 13         1.1802443819e-02
 14         4.7531766844e-03
 15        -4.2185758298e-02
 16         2.6858621539e-01
 17        -1.9568251237e-01
 18         3.3181936074e-01
 19        -2.2385484552e-01
 20        -2.9003471895e-02
 21         1.8748073499e-01
 22         1.8448390180e-01
 23        -4.3888712588e-01
 24        -1.9341959689e-01
 25        -2.0752245060e-01
 26        -2.7824195756e-01
 27         2.2659065757e-01
 28         1.1613847957e-01
 29         8.7947549187e-02
 30        -2.3343466879e-02
 31        -2.6229081917e-02
 32        -5.1975751144e-02
 33         4.7875604325e-02
 34         4.9645518400e-02
 35        -4.3503159021e-01
 36         3.8946218018e-01
 37        -5.6311824554e-01
 38         3.4748397862e-01
 Sym= A
 Ene=         9.2353569985e-01
 Spin= Alpha
 Occup=         0.0000000000e+00
  1        -5.4259913157e-04
  2         4.6898854682e-01
  3        -5.2193189657e-02
  4        -2.9950133732e-01
  5        -8.3858197126e-02
  6        -8.4485932390e-01
  7         1.6027774355e-02
  8         4.4786856099e-01
  9         1.4117705457e-01
 10         1.9496336013e-01
 11         1.2250863824e-01
 12         1.1865672339e-01
 13         1.8143220248e-03
 14        -7.5509400996e-03
 15         3.7965481839e-02
 16        -2.5400462464e-01
 17         3.0125139287e-01
 18        -2.6269875211e-01
 19         1.1638549435e-01
 20        -1.4432970413e-02
 21         6.0305884725e-01
 22         1.1617193089e-01
 23         4.0563882762e-01
 24         8.9243790949e-02
 25        -9.9255582129e-01
 26        -1.7586370525e-01
 27        -6.7064754749e-01
 28        -1.9622064468e-01
 29         2.4322783011e-01
 30         1.5591704883e-01
 31         1.2548055108e-01
 32        -5.1108152757e-02
 33         4.2173153660e-02
 34         5.5958180472e-02
 35        -4.5662495943e-01
 36         4.3597012256e-01
 37        -5.1260036381e-01
 38         2.8135096901e-01
 Sym= A
 Ene=         1.0481368006e+00
 Spin= Alpha
 Occup=         0.0000000000e+00
  1         6.2979930743e-03
  2         3.0337941518e-01
  3        -5.7269075541e-01
  4         6.3833147018e-03
  5         4.2105355516e-01
  6        -8.3338492407e-01
  7         7.6369118631e-01
  8         5.3553158637e-02
  9        -6.6905290433e-01
 10         7.9572997993e-02
 11         4.0960311631e-02
 12         1.1396434956e-01
 13        -4.1085757756e-02
 14         4.6143427893e-02
 15         4.4952807573e-02
 16        -6.6429995713e-02
 17         5.3057127760e-01
 18        -2.9500877638e-01
 19         5.0961981634e-01
 20         2.4063027940e-03
 21         7.6716103691e-02
 22        -5.3462426821e-01
 23         9.6636034270e-02
 24         6.0502959061e-02
 25         2.1298657278e-02
 26         6.7982495195e-01
 27        -1.0113123816e-01
 28        -5.4731615647e-02
 29         4.9899744752e-02
 30         1.2236021942e-02
 31         5.2600862991e-03
 32         6.1384571452e-02
 33        -5.7652327912e-02
 34        -3.2086835904e-02
 35         6.8424642494e-02
 36        -3.4801206012e-02
 37         2.5389595903e-01
 38        -5.5942068937e-01
 Sym= A
 Ene=         1.0610950272e+00
 Spin= Alpha
 Occup=         0.0000000000e+00
  1         5.2710170434e-03
  2        -3.2693545088e-02
  3         1.8696481606e-01
  4        -6.0213723395e-01
  5         6.8186190212e-01
  6         8.9914547676e-02
  7        -2.5879139438e-01
  8         9.4856913483e-01
  9        -1.1633432437e+00
 10        -2.0829620584e-02
 11         6.2626033541e-03
 12         1.1838460550e-02
 13         1.7560946754e-02
 14        -1.7057808622e-02
 15        -2.5998188571e-02
 16         5.0284342764e-02
 17         8.2917367110e-01
 18         2.0009774750e-01
 19        -1.1745487670e+00
 20        -6.9291066301e-03
 21        -4.1064461023e-02
 22         1.6834015793e-01
 23        -2.3488200870e-01
 24        -6.9453070818e-02
 25         5.6061218006e-02
 26        -2.7166008815e-01
 27         2.5949459008e-01
 28         1.1122764619e-01
 29        -4.1441427145e-02
 30        -3.3342652337e-02
 31        -5.1830275593e-03
 32        -3.8523608295e-03
 33         2.5308361216e-02
 34         1.0959453973e-02
 35        -8.2130416269e-04
 36         3.0498662985e-02