[Molden Format]
[Atoms] (AU)
O    1    8          -0.0424239248        -0.0061326737         2.7635457510
H    2    1          -0.0424239248        -0.0061326737         4.5720136531
H    3    1          -0.0424239248         1.7447312584         2.3107415504
O    4    8          -0.0424239248        -0.0061326737        -2.8678381029
H    5    1          -0.0424239248        -1.7569966058        -3.3206423035
H    6    1           1.4738687190         0.2130579855        -1.9069175930
[GTO]
  1 0
 s    6  1.00
     5484.6717000000         0.0018311000
      825.2349500000         0.0139501000
      188.0469600000         0.0684451000
       52.9645000000         0.2327143000
       16.8975700000         0.4701930000
        5.7996353000         0.3585209000
 s    3  1.00
       15.5396160000        -0.1107775000
        3.5999336000        -0.1480263000
        1.0137618000         1.1307670000
 p    3  1.00
       15.5396160000         0.0708743000
        3.5999336000         0.3397528000
        1.0137618000         0.7271586000
 s    1  1.00
        0.2700058000         1.0000000000
 p    1  1.00
        0.2700058000         1.0000000000
 d    1  1.00
        0.8000000000         1.0000000000

  2 0
 s    3  1.00
       18.7311370000         0.0334946000
        2.8253937000         0.2347269500
        0.6401217000         0.8137573300
 s    1  1.00
        0.1612778000         1.0000000000

  3 0
 s    3  1.00
       18.7311370000         0.0334946000
        2.8253937000         0.2347269500
        0.6401217000         0.8137573300
 s    1  1.00
        0.1612778000         1.0000000000

  4 0
 s    6  1.00
     5484.6717000000         0.0018311000
      825.2349500000         0.0139501000
      188.0469600000         0.0684451000
       52.9645000000         0.2327143000
       16.8975700000         0.4701930000
        5.7996353000         0.3585209000
 s    3  1.00
       15.5396160000        -0.1107775000
        3.5999336000        -0.1480263000
        1.0137618000         1.1307670000
 p    3  1.00
       15.5396160000         0.0708743000
        3.5999336000         0.3397528000
        1.0137618000         0.7271586000
 s    1  1.00
        0.2700058000         1.0000000000
 p    1  1.00
        0.2700058000         1.0000000000
 d    1  1.00
        0.8000000000         1.0000000000

  5 0
 s    3  1.00
       18.7311370000         0.0334946000
        2.8253937000         0.2347269500
        0.6401217000         0.8137573300
 s    1  1.00
        0.1612778000         1.0000000000

  6 0
 s    3  1.00
       18.7311370000         0.0334946000
        2.8253937000         0.2347269500
        0.6401217000         0.8137573300
 s    1  1.00
        0.1612778000         1.0000000000

[MO]
 Sym= A
 Ene=        -1.9138055556e+01
 Spin= Alpha
 Occup=         2.0000000000e+00
  1         9.9284141622e-01
  2         2.6234374749e-02
  3         2.6866919575e-05
  4         8.6715954790e-04
  5         7.0131621616e-04
  6         1.0226311350e-02
  7         2.9508574554e-06
  8         2.4749144038e-07
  9        -7.7549666753e-05
 10        -7.7731989645e-03
 11        -7.7870784817e-03
 12        -7.8119015285e-03
 13         3.2480726554e-07
 14        -4.1152134021e-06
 15         6.6986992484e-06
 16         4.0441867200e-04
 17        -1.0456527870e-03
 18         3.3294284233e-04
 19        -9.9185925360e-04
 20        -9.1386976641e-05
 21         1.4182445199e-05
 22        -2.6527005419e-05
 23        -2.1155114207e-05
 24         5.4593664048e-05
 25        -3.1482497584e-05
 26         6.3524794540e-05
 27         7.6352713872e-05
 28        -1.1144962360e-04
 29         4.2033734382e-05
 30         5.3204496104e-05
 31         1.9047087672e-05
 32        -4.7455302841e-06
 33        -2.1165966570e-05
 34        -2.1852361239e-07
 35         3.3366927484e-05
 36         2.3136431798e-05
 37         1.2288344497e-04
 38        -2.7618856349e-04
 Sym= A
 Ene=        -1.9123183883e+01
 Spin= Alpha
 Occup=         2.0000000000e+00
  1         1.0462636532e-04
  2        -6.8314750045e-06
  3        -2.1245038198e-05
  4        -3.8242693180e-06
  5        -3.5073317424e-05
  6         3.0975541319e-05
  7         5.6784487239e-05
  8        -8.7336854675e-06
  9         9.7520585319e-05
 10         2.2696155120e-05
 11        -7.7798073174e-06
 12         3.6299137164e-05
 13         7.5558014142e-07
 14        -1.4673783802e-05
 15         8.7249261124e-06
 16        -5.4645201112e-05
 17        -1.9109099714e-05
 18         6.3563064304e-05
 19        -6.3410732214e-05
 20         9.9284311059e-01
 21         2.6236485275e-02
 22         7.5538857211e-04
 23        -7.5001997273e-04
 24         2.2782410642e-04
 25         1.0230273228e-02
 26         3.4462428962e-06
 27        -1.1725287647e-05
 28         2.2753787497e-05
 29        -7.7805802901e-03
 30        -7.7911792877e-03
 31        -7.7706322510e-03
 32        -5.4532696924e-06
 33        -1.1952824330e-05
 34        -1.0272805860e-05
 35         3.6946958654e-04
 36        -1.0619795569e-03
 37         3.5568292108e-04
 38        -1.0345408852e-03
 Sym= A
 Ene=        -1.0044186776e+00
 Spin= Alpha
 Occup=         2.0000000000e+00
  1         2.0753884338e-01
  2        -4.6489663804e-01
  3        -1.7898048181e-03
  4        -1.0043302389e-01
  5        -7.8371628336e-02
  6        -4.3204465933e-01
  7        -2.3465633146e-03
  8        -4.6313971688e-02
  9        -3.6537132329e-02
 10         1.0528939907e-02
 11        -1.6957433151e-02
 12        -1.7929857454e-02
 13        -2.5524979732e-04
 14         3.0415630996e-04
 15         1.7346996730e-03
 16        -1.4006388722e-01
 17        -5.9693402713e-03
 18        -1.3983228975e-01
 19        -4.7370052067e-03
 20         2.6855215865e-02
 21        -5.9693510796e-02
 22        -1.1624049825e-02
 23         1.0722483325e-02
 24        -4.7229321931e-03
 25        -5.4016872363e-02
 26        -3.4911492294e-03
 27         4.5929922359e-03
 28        -4.1244036249e-03
 29        -8.7250357321e-04
 30        -1.5500337368e-03
 31        -1.1048876802e-04
 32         2.1021997473e-04
 33        -1.8460746811e-03
 34        -9.1734769597e-04
 35        -1.7670098592e-02
 36        -8.2531554449e-04
 37        -1.8563194871e-02
 38        -6.8205075287e-03
 Sym= A
 Ene=        -9.8901578010e-01
 Spin= Alpha
 Occup=         2.0000000000e+00
  1         2.7679834985e-02
  2        -6.3034451810e-02
  3        -1.8668895994e-04
  4        -1.3474657121e-02
  5        -1.2738276790e-02
  6        -5.7707822937e-02
  7         5.1940404032e-04
  8        -7.4410640563e-03
  9        -9.4373431876e-03
 10         8.6433577333e-04
 11        -2.7612308387e-03
 12        -2.4230191323e-03
 13        -8.6702229039e-06
 14        -9.1979748409e-05
 15         2.5612887439e-05
 16        -1.9156661530e-02
 17        -7.8684899909e-04
 18        -1.9071006631e-02
 19         3.6478725187e-03
 20        -2.0775080968e-01
 21         4.6550314440e-01
 22         8.7495042528e-02
 23        -8.7713080577e-02
 24         2.7880905236e-02
 25         4.3281555117e-01
 26         4.1350156621e-02
 27        -3.8555396766e-02
 28         1.1286679414e-02
 29         1.0438111479e-02
 30         1.6219077228e-02
 31        -2.2488906611e-03
 32        -1.7806632253e-03
 33         1.3547027283e-02
 34         7.3890374578e-03
 35         1.4061259432e-01
 36         6.5547992820e-03
 37         1.4026625336e-01
 38         2.8151409183e-03
 Sym= A
 Ene=        -5.2665212807e-01
 Spin= Alpha
 Occup=         2.0000000000e+00
  1        -1.0174029334e-04
  2        -2.3582488181e-04
  3         3.1748220168e-03
  4         2.9394124223e-01
  5        -3.8738034855e-01
  6         1.5080871317e-03
  7         3.7977971101e-03
  8         1.5146117267e-01
  9        -2.0013539366e-01
 10         5.1176475573e-05
 11         3.1829301363e-02
 12        -3.2318915642e-02
 13         7.4977960707e-04
 14        -8.3350727834e-04
 15        -9.7881721728e-03
 16        -2.2466410937e-01
 17        -1.2934798971e-01
 18         2.2158894608e-01
 19         1.2785534686e-01
 20         3.4401150369e-03
 21        -8.2121411232e-03
 22         8.3415599409e-02
 23         1.1747346590e-01
 24         9.3534022262e-02
 25        -1.2197060919e-02
 26         3.9122725292e-02
 27         6.1553873690e-02
 28         5.0738513158e-02
 29         7.4945624797e-03
 30        -1.1211920746e-02
 31         4.3939337077e-03
 32         1.6918835089e-03
 33         5.9758495258e-03
 34        -2.7451750448e-03
 35        -8.0512708996e-02
 36        -4.3951828513e-02
 37         7.9927346651e-02
 38         5.2255857829e-02
 Sym= A
 Ene=        -5.0879722082e-01
 Spin= Alpha
 Occup=         2.0000000000e+00
  1         1.0641855113e-03
  2        -2.8202473126e-03
  3         4.1734291468e-03
  4        -1.2346846281e-01
  5         1.3498313694e-01
  6        -4.9883301412e-03
  7         3.6279943986e-03
  8        -6.6979698745e-02
  9         6.6664001361e-02
 10         2.9139390357e-04
 11        -1.3284725694e-02
 12         1.2720124095e-02
 13         1.1339630396e-05
 14         4.8733217452e-05
 15         2.3896158096e-03
 16         8.0538448698e-02
 17         4.8605455114e-02
 18        -8.7938391249e-02
 19        -4.1901396343e-02
 20        -1.5348081012e-03
 21         3.0044775521e-03
 22         2.6131964093e-01
 23         3.3854038997e-01
 24         2.3816510229e-01
 25         7.1859029225e-03
 26         1.3715841769e-01
 27         1.7612631233e-01
 28         1.2257698043e-01
 29         2.4711654369e-02
 30        -3.1786827982e-02
 31         6.1732407919e-03
 32         4.4951751581e-03
 33         1.7655674816e-02
 34        -7.1338492564e-03
 35        -2.2442150597e-01
 36        -1.3020076708e-01
 37         2.2320138843e-01
 38         1.2537255758e-01
 Sym= A
 Ene=        -3.7517388482e-01
 Spin= Alpha
 Occup=         2.0000000000e+00
  1         8.4813778378e-02
  2        -1.6895543347e-01
  3        -1.4137728606e-02
  4         4.2866905251e-01
  5         3.2932875516e-01
  6        -4.0102001371e-01
  7        -1.2074102548e-02
  8         2.8817004854e-01
  9         2.2063724577e-01
 10         3.8225334289e-04
 11         3.2019572951e-02
 12         1.8276973141e-02
 13         1.3669261171e-04
 14         5.7348392965e-04
 15         2.9129643278e-02
 16         1.3824082575e-01
 17         1.0602190826e-01
 18         1.3775013299e-01
 19         1.1504334163e-01
 20        -2.0490125153e-02
 21         4.2632670169e-02
 22        -3.7219370933e-02
 23         9.2406862192e-02
 24        -4.9504916660e-02
 25         1.0243008235e-01
 26        -1.4241347894e-02
 27         6.4566898268e-02
 28        -4.5898155166e-02
 29        -7.0760733805e-04
 30        -5.4598673770e-03
 31        -3.6000072656e-03
 32         5.2263279320e-03
 33        -1.7422302656e-03
 34         3.9270291361e-03
 35        -3.1539577612e-02
 36        -3.2407478220e-02
 37        -1.7358505371e-02
 38        -5.1715231888e-02
 Sym= A
 Ene=        -3.5940452182e-01
 Spin= Alpha
 Occup=         2.0000000000e+00
  1         1.7703231946e-02
  2        -3.7896850850e-02
  3         1.9759300931e-02
  4         8.8084488979e-02
  5         6.6946867804e-02
  6        -7.3363764527e-02
  7         1.7969017278e-02
  8         6.3708590058e-02
  9         4.8804469436e-02
 10        -5.0036383651e-04
 11         5.6541764867e-03
 12         3.5906594815e-03
 13         1.1218275786e-03
 14         2.2705687649e-04
 15         6.5473953302e-03
 16         2.7044390437e-02
 17         2.4773099303e-02
 18         2.9165670118e-02
 19         2.5220615022e-03
 20         8.4510651009e-02
 21        -1.6753693091e-01
 22         3.8276236802e-01
 23        -3.7063895540e-01
 24         1.1788312583e-01
 25        -3.9727688184e-01
 26         2.6060340391e-01
 27        -2.5132627982e-01
 28         7.5405151893e-02
 29         2.5777628139e-02
 30         2.3775378117e-02
 31         2.2043490301e-03
 32        -2.8465671211e-02
 33         8.4035669196e-03
 34        -8.9908041037e-03
 35         1.3801820551e-01
 36         1.0252524858e-01
 37         1.4196508330e-01
 38         1.0416584767e-01
 Sym= A
 Ene=        -2.9426524111e-01
 Spin= Alpha
 Occup=         2.0000000000e+00
  1         1.6722970135e-03
  2        -5.4729478587e-03
  3         6.4159075858e-01
  4         4.0333824219e-03
  5         4.1741895062e-03
  6        -2.5408864120e-03
  7         5.0376208326e-01
  8         4.3654386933e-03
  9         4.0357487984e-03
 10         9.7310753287e-04
 11        -7.8192268463e-04
 12        -9.0411341011e-04
 13         2.7840156626e-02
 14         2.1883558002e-02
 15         3.2539804831e-04
 16         6.4510278390e-04
 17         2.0613926339e-03
 18        -4.9457235839e-05
 19        -1.2240690048e-03
 20        -1.2966236864e-03
 21         9.4225550526e-03
 22        -4.5219055670e-03
 23         2.0744165399e-02
 24        -4.8378536921e-02
 25        -1.6784675270e-02
 26        -9.1193813442e-03
 27         1.2076598060e-02
 28        -4.4606400037e-02
 29         2.0219829232e-03
 30         2.2931993086e-03
 31         2.1143422726e-03
 32         6.9714973514e-04
 33        -1.8633010607e-03
 34         1.9520036615e-03
 35        -1.8407073785e-03
 36        -7.8687900876e-03
 37        -7.0848158357e-03
 38         3.5178511025e-02
 Sym= A
 Ene=        -2.7809250427e-01
 Spin= Alpha
 Occup=         2.0000000000e+00
  1         1.2805622998e-02
  2        -3.2255585943e-02
  3         4.5491398788e-02
  4         2.5622811339e-02
  5         5.0625726112e-02
  6        -6.3721745841e-02
  7         3.4418801954e-02
  8         1.0558518312e-02
  9         5.1541655583e-03
 10        -2.6159575010e-03
 11        -1.8470488014e-03
 12         3.2331534938e-03
 13         1.9793950965e-03
 14         2.0918142004e-03
 15         3.0428083483e-03
 16         3.0928779444e-02
 17         3.6407682122e-02
 18        -1.0580987401e-03
 19         3.7809307856e-02
 20        -9.8735970095e-04
 21         2.4997391071e-03
 22        -3.1648456506e-01
 23        -1.4121131676e-01
 24         5.3912308844e-01
 25         8.7795440954e-03
 26        -2.4466188078e-01
 27        -1.0854671050e-01
 28         4.2280604934e-01
 29        -2.0390836506e-02
 30         9.5009652471e-03
 31         1.0720419626e-02
 32         6.4805530614e-03
 33         1.6923936257e-02
 34        -2.1311190312e-02
 35         2.1246866542e-03
 36        -1.1990811929e-03
 37         4.0553679210e-03
 38        -1.8670535842e-02
 Sym= A
 Ene=         5.4010501029e-02
 Spin= Alpha
 Occup=         0.0000000000e+00
  1         8.7499538097e-02
  2        -1.1461473513e-01
  3        -2.2392805299e-02
  4        -1.6842708141e-01
  5        -1.0882298126e-01
  6        -1.0394736891e+00
  7        -9.1265362527e-03
  8        -3.0080513966e-01
  9        -2.0102376786e-01
 10         4.6740631004e-02
 11         2.4628061846e-02
 12         3.4967827494e-02
 13        -5.3923443933e-04
 14        -2.9279665504e-03
 15        -6.0955678542e-03
 16         8.4431996637e-02
 17         7.6248138683e-01
 18         7.3698665157e-02
 19         7.9035100711e-01
 20         5.9035593558e-02
 21        -8.1936356181e-02
 22        -1.0143839309e-01
 23         7.6678452632e-02
 24        -8.1334185114e-02
 25        -6.8832673293e-01
 26        -1.8722564469e-01
 27         1.5561646337e-01
 28        -9.6115035941e-02
 29         1.6342911929e-02
 30         1.9422281616e-02
 31         2.9984909287e-02
 32         5.0044629134e-03
 33        -8.1754187986e-03
 34         3.3019893013e-03
 35         5.4384404279e-02
 36         4.6815788133e-01
 37         4.8075127921e-02
 38         5.7205738510e-01
 Sym= A
 Ene=         9.7438426699e-02
 Spin= Alpha
 Occup=         0.0000000000e+00
  1         5.0342074487e-02
  2        -4.2218240357e-02
  3         1.8950491237e-02
  4        -1.0472404285e-01
  5        -1.7936277830e-01
  6        -7.2636298641e-01
  7         1.0146377917e-02
  8        -1.5089422390e-01
  9        -2.6806770332e-01
 10         3.6101683739e-02
 11         2.8796685883e-02
 12         1.6047325696e-02
 13         2.3368736716e-04
 14         2.8713031140e-03
 15        -8.5594775633e-03
 16         4.3887939552e-02
 17         7.6243224491e-01
 18         5.4418407888e-02
 19         3.8423940223e-01
 20        -8.2033084654e-02
 21         9.0215966500e-02
 22         1.3612537469e-01
 23        -1.9480282890e-01
 24        -1.1163491912e-02
 25         1.0669791978e+00
 26         2.1395614689e-01
 27        -3.4171473982e-01
 28         3.0420889388e-02
 29        -3.9373910390e-02
 30        -3.0781680564e-02
 31        -4.3084872311e-02
 32        -9.9365497067e-03
 33         4.3527769531e-03
 34         2.1468462020e-03
 35        -8.8800369819e-02
 36        -9.8857494165e-01
 37        -7.7820207018e-02
 38        -6.4179033693e-01
 Sym= A
 Ene=         1.5233447152e-01
 Spin= Alpha
 Occup=         0.0000000000e+00
  1         2.3864353762e-03
  2        -4.4756970709e-03
  3        -1.1606412627e-02
  4        -2.3600988917e-01
  5         2.9642628034e-01
  6        -1.5123470375e-02
  7        -2.7229566640e-03
  8        -4.3161847931e-01
  9         5.6780872773e-01
 10         1.7729172785e-03
 11        -1.4346717579e-02
 12         1.6744016582e-02
 13        -2.9381892080e-04
 14        -1.3178597519e-03
 15         3.6230262954e-03
 16        -9.4300435939e-02
 17        -1.1911078387e+00
 18         9.6966975640e-02
 19         1.1970920817e+00
 20        -8.4622565159e-03
 21         7.0997922279e-03
 22        -4.7822947428e-02
 23        -1.4130649816e-01
 24        -7.3502981297e-02
 25         1.4288896249e-01
 26        -1.0137665256e-01
 27        -2.1773313311e-01
 28        -1.3565262970e-01
 29        -9.8458095126e-03
 30         3.9479613279e-03
 31        -7.8443127552e-03
 32        -2.4405217890e-03
 33        -3.5234152120e-03
 34         5.4175242415e-03
 35        -2.9987106937e-02
 36        -5.8029227205e-01
 37         2.2651594762e-02
 38         3.2128732719e-01
 Sym= A
 Ene=         1.7503991991e-01
 Spin= Alpha
 Occup=         0.0000000000e+00
  1         1.0340019239e-02
  2         7.7043835083e-03
  3         4.7525069647e-02
  4        -1.4381781686e-01
  5         5.0887148984e-02
  6        -2.4003520335e-01
  7         1.1947759263e-02
  8        -2.5778784421e-01
  9         1.4076174508e-01
 10         1.1559563237e-02
 11         9.6850779586e-03
 12         6.4112130461e-03
 13         3.7738598861e-04
 14         8.1416181789e-03
 15        -6.0726348939e-04
 16        -4.8291617543e-02
 17        -2.7500985361e-01
 18         7.7408728424e-02
 19         7.0450606652e-01
 20        -1.2985937356e-02
 21         1.2008967670e-02
 22         2.4124862653e-01
 23         2.2438223652e-01
 24         1.7576158567e-01
 25         1.9191813294e-01
 26         4.2840314244e-01
 27         4.4742940300e-01
 28         3.6271512549e-01
 29         2.2485483272e-03
 30        -1.9197550237e-02
 31        -3.2985235221e-03
 32        -3.8527769009e-04
 33         7.3851949405e-03
 34        -4.7503364305e-04
 35         9.1277009383e-02
 36         1.0620394670e+00
 37        -1.2239122876e-01
 38        -1.3731369848e+00
 Sym= A
 Ene=         7.4000572480e-01
 Spin= Alpha
 Occup=         0.0000000000e+00
  1         3.0767469561e-03
  2         1.1523590087e-01
  3        -1.0579287732e-02
  4        -1.7252213388e-01
  5        -6.4504888680e-02
  6        -2.4106953025e-01
  7         1.3167023583e-02
  8        -1.6357849338e-01
  9         4.4212128706e-01
 10         4.5971322125e-02
 11         1.6008674604e-01
 12        -7.7820193391e-02
 13        -2.7177514123e-04
 14         2.4014828452e-03
 15        -3.0310240487e-02
 16        -5.9966356181e-01
 17         3.9127703346e-01
 18         6.0773042713e-01
 19        -3.1155168357e-01
 20         1.6983364701e-02
 21         6.2888100117e-02
 22        -2.8553082913e-01
 23        -1.5695253591e-02
 24         2.1919253943e-01
 25        -3.0167718187e-01
 26        -3.3009277885e-02
 27        -1.6904344331e-01
 28        -4.2757175563e-01
 29         1.1041678524e-01
 30        -1.6784854920e-02
 31         2.6414879684e-02
 32         1.8155188683e-02
 33         5.6625532701e-02
 34        -7.2302256144e-03
 35        -2.9293177879e-01
 36         2.1184277156e-01
 37         5.6288179831e-01
 38        -1.2584264058e-01
 Sym= A
 Ene=         8.1045293519e-01
 Spin= Alpha
 Occup=         0.0000000000e+00
  1         1.5784758676e-03
  2         1.4944707384e-01
  3        -2.1523765915e-01
  4        -9.0119174824e-02
  5        -8.7932222806e-02
  6        -2.5885976115e-01
  7         2.1298803708e-01
  8         2.4621794169e-02
  9         2.5697963532e-01
 10         6.2860823061e-02
 11         9.0520446940e-02
 12         1.2329214397e-02
 13         2.5969391953e-03
 14        -9.6434482087e-03
 15        -1.1388143385e-02
 16        -2.6489889090e-01
 17         1.7569699853e-01
 18         1.4747346501e-01
 19        -1.2831175620e-01
 20         1.6328755298e-02
 21         3.5749536185e-02
 22        -2.2685003632e-01
 23         1.4544169750e-01
 24         3.5504224341e-01
 25        -2.0082498120e-01
 26         3.8869452965e-01
 27         2.7554582113e-01
 28        -1.5015207408e-01
 29        -6.0343272485e-02
 30         1.8541704050e-01
 31        -2.9787644273e-02
 32        -5.3056355444e-03
 33        -5.1383642999e-02
 34         5.0308356096e-02
 35         8.5245905694e-01
 36        -6.0815717336e-01
 37        -4.8572361263e-01
 38         5.1344236132e-01
 Sym= A
 Ene=         8.2921446708e-01
 Spin= Alpha
 Occup=         0.0000000000e+00
  1         1.2344290688e-02
  2         3.8476098027e-01
  3         7.4932452185e-02
  4        -3.9361136981e-01
  5        -5.4205234752e-01
  6        -7.2646522565e-01
  7        -7.4621664872e-02
  8         5.2889555232e-01
  9         2.8857421979e-01
 10         1.2856878866e-01
 11         6.8691037942e-02
 12         2.4408825134e-01
 13        -3.7932399056e-04
 14         3.1326886768e-03
 15         2.3621452465e-02
 16         5.1300396779e-01
 17        -4.4208899427e-01
 18        -3.6382612259e-01
 19         4.1173410990e-01
 20         1.5240274511e-02
 21        -1.3935905652e-01
 22        -1.4223751312e-01
 23        -1.1260391865e-01
 24         2.2297798929e-01
 25         1.1680574138e-01
 26        -1.7435704284e-02
 27         1.4152254231e-01
 28        -3.2213528500e-01
 29         8.3527448572e-04
 30        -4.3623446266e-02
 31        -4.7997730190e-02
 32         2.1605785650e-02
 33         4.4317990729e-02
 34         2.8793593401e-02
 35         8.5855586835e-02
 36         8.5459547827e-03
 37         3.8331552650e-01
 38        -2.1756879791e-01
 Sym= A
 Ene=         8.6836773317e-01
 Spin= Alpha
 Occup=         0.0000000000e+00
  1         3.0741786375e-02
  2        -4.3453913825e-01
  3        -3.7778177445e-01
  4        -2.2429277959e-01
  5        -1.5920469255e-01
  6         6.5012960981e-01
  7         4.0101001201e-01
  8        -9.1822937113e-03
  9        -5.5497272484e-02
 10        -2.1142226546e-01
 11        -6.6459697323e-02
 12        -2.5312578354e-03
 13         4.7972491416e-03
 14        -2.4650872021e-03
 15        -7.4951407170e-02
 16         7.0874245511e-01
 17        -5.5824465336e-01
 18         6.1206070914e-01
 19        -4.7345576842e-01
 20        -8.8565690756e-03
 21         4.0652191374e-01
 22        -1.1843835000e-01
 23         1.8260457775e-01
 24         7.3842689793e-03
 25        -6.6131439092e-01
 26         1.9378702166e-01
 27        -3.0676578411e-01
 28         1.2925262757e-02
 29         1.2767010486e-01
 30         9.7322711202e-02
 31         1.3495055822e-01
 32        -2.1764805687e-02
 33        -2.5808108578e-02
 34        -3.7748558307e-02
 35        -2.9177718516e-01
 36         1.9434849418e-01
 37        -2.3433005845e-01
 38         2.1543267738e-01
 Sym= A
 Ene=         8.8108431361e-01
 Spin= Alpha
 Occup=         0.0000000000e+00
  1         1.0188884059e-02
  2        -1.6241381480e-01
  3         4.4728050050e-01
  4        -9.5288777568e-02
  5         9.6466731535e-03
  6         2.4522509899e-01
  7        -4.7626942672e-01
  8        -1.3522360417e-02
  9        -9.5283060835e-02
 10        -8.8025242275e-02
 11        -9.5501890060e-03
 12        -1.9040856466e-02
 13        -6.0999652167e-03
 14         6.5034014293e-04
 15        -3.6584492202e-02
 16         2.0406956453e-01
 17        -1.0093022577e-01
 18         2.9756482923e-01
 19        -2.5589982350e-01
 20         2.4915023225e-02
 21        -1.1489581157e-01
 22        -2.4335361035e-01
 23         4.5372730798e-01
 24        -4.3214911267e-01
 25         1.3804225391e-01
 26         1.1451946911e-01
 27        -2.7221992193e-01
 28         4.3281614539e-01
 29        -6.9207595881e-03
 30         6.1421284041e-02
 31        -4.0563395648e-02
 32         3.0728304574e-02
 33         6.6225662644e-02
 34         5.6235408704e-02
 35         5.6104211097e-01
 36        -4.5468330578e-01
 37         4.0946781297e-01
 38        -3.2024295167e-01
 Sym= A
 Ene=         8.9618339245e-01
 Spin= Alpha
 Occup=         0.0000000000e+00
  1         1.9409288557e-02
  2        -2.6095087293e-01
  3         5.7775192225e-01
  4        -3.6747715708e-02
  5        -2.3081311226e-02
  6         3.7607283633e-01
  7        -6.3230773463e-01
  8        -1.7670459779e-01
  9        -2.9843974076e-02
 10        -1.3398809427e-01
 11        -4.4173591413e-03
 12        -3.3799201504e-02
 13        -7.6067881121e-03
 14        -1.1619807839e-02
 15        -6.8246330597e-02
 16         2.7733716507e-01
 17        -1.8119540751e-01
 18         5.2956871966e-01
 19        -4.2832979300e-01
 20        -1.7966705046e-02
 21        -2.6230555169e-01
 22         1.3920574102e-01
 23        -3.8693927453e-01
 24         3.2163511939e-01
 25         5.2284456657e-01
 26        -1.3574314186e-02
 27         4.0052281481e-01
 28        -2.6107943718e-01
 29        -1.2865780407e-01
 30        -9.2732205740e-02
 31        -1.0229448366e-01
 32        -1.6625599250e-02
 33        -6.0328902726e-02
 34        -2.3720132524e-02
 35        -5.1585036844e-02
 36        -2.0127946647e-02
 37        -3.6095603183e-01
 38         2.8841682213e-01
 Sym= A
 Ene=         9.2587164731e-01
 Spin= Alpha
 Occup=         0.0000000000e+00
  1         1.0355254360e-02
  2        -1.4108098820e-01
  3        -4.0198102914e-01
  4        -3.8220527928e-02
  5         1.7644477253e-02
  6         2.0772679545e-01
  7         4.4921465909e-01
  8        -1.0000794297e-01
  9        -7.7522126617e-02
 10        -8.5046224639e-02
 11         1.5643666670e-02
 12        -2.8982907656e-02
 13         5.3953549840e-03
 14         1.5758992308e-02
 15        -5.1815777430e-02
 16         1.4861628471e-01
 17        -3.8916946921e-02
 18         3.6380925376e-01
 19        -3.2003676898e-01
 20         1.4227071856e-02
 21        -6.1722064777e-01
 22         4.5692356515e-01
 23        -1.6195288949e-01
 24        -8.4129213952e-02
 25         9.8766813288e-01
 26        -6.7752886856e-01
 27         3.2423600058e-01
 28         2.9554450315e-02
 29        -1.8555898818e-01
 30        -1.4426950402e-01
 31        -2.1210803075e-01
 32         4.4670510704e-02
 33         6.7587695952e-02
 34         4.9843742390e-02
 35         4.4689488274e-01
 36        -3.7139374518e-01
 37         4.4418267804e-01
 38        -2.5824788650e-01
 Sym= A
 Ene=         1.0050498964e+00
 Spin= Alpha
 Occup=         0.0000000000e+00
  1         4.6098140680e-03
  2         4.2009854410e-01
  3         3.8563242758e-02
  4        -7.5556784104e-01
  5         2.8609589969e-01
  6        -6.9884538658e-01
  7        -4.9917162546e-02
  8         9.9348991241e-01
  9        -4.2732298244e-01
 10         1.1895109681e-01
 11         1.9183410770e-01
 12         8.9606738579e-02
 13         7.0216658777e-04
 14        -7.7016747622e-03
 15        -7.5588778312e-03
 16        -2.6594336704e-01
 17         8.2518973955e-01
 18         1.9046478298e-01
 19        -8.2619786167e-01
 20        -8.8617714754e-03
 21         6.0278742377e-02
 22         2.3259369938e-01
 23        -4.2508515647e-02
 24        -2.7551063616e-01
 25        -1.3225500531e-01
 26        -1.6898161464e-01
 27         2.5785596505e-02
 28         3.7999563383e-01
 29        -1.1925841831e-02
 30         1.7167117223e-02
 31         1.2078449832e-02
 32        -2.2663777914e-02
 33        -5.6244411299e-02
 34        -4.0657322551e-02
 35        -1.3086008930e-01
 36         1.2540961872e-01
 37        -3.3162463194e-01
 38         3.4570549074e-01
 Sym= A
 Ene=         1.0840063520e+00
 Spin= Alpha
 Occup=         0.0000000000e+00
  1         7.9851728547e-03
  2         1.3325036927e-01
  3        -1.2424806953e-01
  4         7.7010558701e-02
  5        -1.5080885305e-02
  6        -3.3653099833e-01
  7         1.6174696407e-01
  8        -1.8205741509e-01
  9        -3.8229291648e-02
 10         7.0744056931e-03
 11         6.2591297573e-02
 12         4.8738157526e-02
 13         5.6751101851e-04
 14         2.7363188440e-02
 15        -2.3818791252e-02
 16         5.9969667248e-02
 17         3.6821750610e-02
 18         8.9707712780e-02
 19         9.9376936521e-02
 20         4.2730463422e-03
 21         5.1182338912e-02
 22        -5.0802473168e-01
 23        -6.8205852503e-01
 24        -4.7712757032e-01
 25        -1.3058356591e-01
 26         8.1848436236e-01
 27         1.1399577971e+00
 28         7.7857261704e-01
 29         1.4990954535e-02
 30         2.5721988566e-02
 31         1.2181766436e-02
 32         5.5152846333e-03
 33         8.2681822445e-03
 34         8.5227204113e-03
 35        -1.1190610218e-02
 36         9.7383537082e-01