[Molden Format]
[Atoms] (AU)
O    1    8          -2.0845268021        -1.4250650145         0.7474782408
H    2    1          -2.0845268021        -1.4250650145         2.5801360144
H    3    1          -2.0845268021         0.3597195308         0.3136641919
O    4    8           2.1050986036         1.4244880516        -0.7496844415
H    5    1           2.3883179077         1.3134129949        -2.5550083819
H    6    1           1.4542462783        -0.2389106923        -0.3037778195
[GTO]
  1 0
 s    6  1.00
     5484.6717000000         0.0018311000
      825.2349500000         0.0139501000
      188.0469600000         0.0684451000
       52.9645000000         0.2327143000
       16.8975700000         0.4701930000
        5.7996353000         0.3585209000
 s    3  1.00
       15.5396160000        -0.1107775000
        3.5999336000        -0.1480263000
        1.0137618000         1.1307670000
 p    3  1.00
       15.5396160000         0.0708743000
        3.5999336000         0.3397528000
        1.0137618000         0.7271586000
 s    1  1.00
        0.2700058000         1.0000000000
 p    1  1.00
        0.2700058000         1.0000000000
 d    1  1.00
        0.8000000000         1.0000000000

  2 0
 s    3  1.00
       18.7311370000         0.0334946000
        2.8253937000         0.2347269500
        0.6401217000         0.8137573300
 s    1  1.00
        0.1612778000         1.0000000000

  3 0
 s    3  1.00
       18.7311370000         0.0334946000
        2.8253937000         0.2347269500
        0.6401217000         0.8137573300
 s    1  1.00
        0.1612778000         1.0000000000

  4 0
 s    6  1.00
     5484.6717000000         0.0018311000
      825.2349500000         0.0139501000
      188.0469600000         0.0684451000
       52.9645000000         0.2327143000
       16.8975700000         0.4701930000
        5.7996353000         0.3585209000
 s    3  1.00
       15.5396160000        -0.1107775000
        3.5999336000        -0.1480263000
        1.0137618000         1.1307670000
 p    3  1.00
       15.5396160000         0.0708743000
        3.5999336000         0.3397528000
        1.0137618000         0.7271586000
 s    1  1.00
        0.2700058000         1.0000000000
 p    1  1.00
        0.2700058000         1.0000000000
 d    1  1.00
        0.8000000000         1.0000000000

  5 0
 s    3  1.00
       18.7311370000         0.0334946000
        2.8253937000         0.2347269500
        0.6401217000         0.8137573300
 s    1  1.00
        0.1612778000         1.0000000000

  6 0
 s    3  1.00
       18.7311370000         0.0334946000
        2.8253937000         0.2347269500
        0.6401217000         0.8137573300
 s    1  1.00
        0.1612778000         1.0000000000

[MO]
 Sym= A
 Ene=        -1.9157414221e+01
 Spin= Alpha
 Occup=         2.0000000000e+00
  1         9.9283249967e-01
  2         2.6153170128e-02
  3        -5.2711045463e-06
  4         8.0982455645e-04
  5         6.7993189500e-04
  6         1.0466943390e-02
  7         1.4380549653e-04
  8         7.4739679566e-05
  9        -4.0947234074e-05
 10        -7.7916878419e-03
 11        -7.8381341070e-03
 12        -7.8546184653e-03
 13         1.2415128444e-05
 14        -1.3172825137e-05
 15         2.1454257212e-06
 16         3.5260996392e-04
 17        -1.0176004226e-03
 18         3.2618272666e-04
 19        -1.0314976638e-03
 20        -3.2793780144e-05
 21        -1.4286991003e-04
 22        -3.5826474828e-06
 23         1.4709487014e-05
 24        -1.6888045704e-05
 25         7.1954715604e-04
 26        -9.5945831361e-05
 27        -2.2864235251e-04
 28         1.0350476685e-04
 29        -1.0799352790e-04
 30        -4.7101796490e-05
 31        -9.7377452784e-05
 32         4.2686483433e-06
 33        -3.9541095542e-06
 34        -1.4671222736e-05
 35        -3.2678844559e-05
 36         9.0925548957e-05
 37        -8.3606456285e-05
 38        -6.6157533250e-04
 Sym= A
 Ene=        -1.9132012184e+01
 Spin= Alpha
 Occup=         2.0000000000e+00
  1        -2.0730601431e-05
  2        -9.2045680938e-05
  3         3.6123180598e-06
  4         3.6834954403e-06
  5         1.6841742411e-05
  6         4.6202071729e-04
  7         7.0549781761e-05
  8         7.1833278186e-05
  9        -8.6545035908e-05
 10        -4.6111065341e-05
 11        -7.6701828652e-05
 12        -5.8169738717e-05
 13        -2.0206892434e-05
 14        -3.5859406092e-06
 15         5.3464093921e-06
 16        -2.1370889968e-05
 17         8.2533029660e-05
 18         4.3555307528e-05
 19        -3.2934573014e-04
 20         9.9284007931e-01
 21         2.6174138459e-02
 22        -1.5389455993e-04
 23        -7.7887189542e-04
 24        -6.7051755180e-04
 25         1.0404636148e-02
 26        -7.2156734246e-05
 27        -1.0217916122e-04
 28         3.0554004712e-05
 29        -7.7832673998e-03
 30        -7.8029119720e-03
 31        -7.8204517779e-03
 32        -3.3151221555e-06
 33         4.4058676129e-06
 34         4.2895204697e-06
 35         3.5733606218e-04
 36        -1.0124592153e-03
 37         3.6467328711e-04
 38        -1.2058828765e-03
 Sym= A
 Ene=        -1.0172184273e+00
 Spin= Alpha
 Occup=         2.0000000000e+00
  1         2.0323110070e-01
  2        -4.5333428640e-01
  3        -3.9260049689e-03
  4        -9.5059759624e-02
  5        -7.4720181201e-02
  6        -4.3284916541e-01
  7        -4.7763744802e-03
  8        -4.7294172671e-02
  9        -3.4137177442e-02
 10         9.6886822054e-03
 11        -1.5337636998e-02
 12        -1.6230188337e-02
 13        -5.8880852303e-04
 14         4.5159055961e-04
 15         2.0002929283e-03
 16        -1.3287802552e-01
 17        -5.3369711411e-03
 18        -1.3206056756e-01
 19        -8.1216100554e-04
 20         5.0335554372e-02
 21        -1.1035039446e-01
 22         8.0131333990e-03
 23         2.5250406207e-02
 24         1.5672368683e-02
 25        -1.0626495692e-01
 26         7.7402053190e-03
 27         1.1254435581e-02
 28         6.4889798228e-03
 29         1.1742600215e-03
 30        -2.1709642503e-03
 31        -2.8702087859e-03
 32        -3.0912550303e-03
 33         1.7539809999e-03
 34         2.0042331090e-04
 35        -3.1368257139e-02
 36        -1.7601567742e-03
 37        -3.9111252993e-02
 38        -6.5998120453e-03
 Sym= A
 Ene=        -9.8983654023e-01
 Spin= Alpha
 Occup=         2.0000000000e+00
  1         5.3762870525e-02
  2        -1.2224167240e-01
  3         3.1755651532e-03
  4        -2.2542349815e-02
  5        -2.3346906645e-02
  6        -1.1464186186e-01
  7         6.3709965857e-03
  8        -1.1696208000e-02
  9        -1.2189151150e-02
 10         3.8817749440e-03
 11        -4.7267012102e-03
 12        -5.3058002194e-03
 13         1.3640362940e-03
 14        -6.1290310189e-04
 15         1.4364111869e-04
 16        -3.7849778437e-02
 17        -2.4755147330e-04
 18        -3.0968254696e-02
 19         5.9553728629e-03
 20        -2.0417553634e-01
 21         4.5454488784e-01
 22        -1.9139237843e-02
 23        -9.1705092857e-02
 24        -7.6024007474e-02
 25         4.3896582152e-01
 26        -1.0721483790e-02
 27        -4.7053987456e-02
 28        -3.4188927939e-02
 29        -7.4874875755e-03
 30         1.2266057854e-02
 31         1.5844197073e-02
 32         9.0857497807e-03
 33        -5.5687052929e-03
 34        -4.6563494183e-05
 35         1.3595416884e-01
 36         7.8721009349e-03
 37         1.2879609895e-01
 38        -5.7559838202e-03
 Sym= A
 Ene=        -5.3693239419e-01
 Spin= Alpha
 Occup=         2.0000000000e+00
  1         1.9989286009e-03
  2        -8.9749299262e-03
  3         1.9379294453e-02
  4         2.9209856693e-01
  5        -3.8052897110e-01
  6         3.7307811491e-03
  7         1.6945610162e-02
  8         1.5801009661e-01
  9        -2.0299391940e-01
 10         2.3230811535e-04
 11         3.0251246794e-02
 12        -3.4111893004e-02
 13         2.5381288698e-03
 14        -8.0660748761e-04
 15        -9.3605017398e-03
 16        -2.2095098579e-01
 17        -1.2281824882e-01
 18         2.1275149163e-01
 19         1.1701908104e-01
 20         6.5614936060e-03
 21        -1.9583641262e-02
 22        -7.7879219429e-02
 23        -9.3406672542e-02
 24         1.3850270840e-01
 25        -1.1919727392e-02
 26        -4.9688189821e-02
 27        -5.0991650765e-02
 28         7.2179854043e-02
 29         2.2553630839e-03
 30         7.8216715179e-03
 31        -1.4095466098e-02
 32         6.7164791984e-03
 33         1.3416045374e-03
 34        -3.6771130076e-03
 35        -8.7264666681e-02
 36        -4.3955506499e-02
 37         8.6701640058e-02
 38         4.5195411093e-02
 Sym= A
 Ene=        -5.0796263008e-01
 Spin= Alpha
 Occup=         2.0000000000e+00
  1         9.3574956513e-03
  2        -2.4608252291e-02
  3         4.9434580354e-02
  4        -1.2713040227e-01
  5         1.5546611006e-01
  6        -2.9580493793e-02
  7         3.9772147545e-02
  8        -6.6864031540e-02
  9         8.3418169291e-02
 10         3.0178475429e-03
 11        -1.5093475729e-02
 12         1.1443785864e-02
 13         4.2385250309e-03
 14         9.9099356318e-04
 15         3.7119339737e-03
 16         8.4554252913e-02
 17         5.9053175696e-02
 18        -9.0803615658e-02
 19        -4.7050196425e-02
 20        -5.1450174036e-03
 21         9.4896579501e-03
 22        -1.4792723141e-01
 23        -2.5488830080e-01
 24         3.7917031533e-01
 25         2.6503624016e-02
 26        -7.7857968462e-02
 27        -1.3834046594e-01
 28         2.0342543013e-01
 29         2.1556841756e-03
 30         2.6874796583e-02
 31        -3.1741460074e-02
 32         1.2576514225e-02
 33         1.8309454960e-03
 34        -1.1019249807e-02
 35        -2.1949086081e-01
 36        -1.3327161273e-01
 37         2.1279511784e-01
 38         1.1788587586e-01
 Sym= A
 Ene=        -3.9277126668e-01
 Spin= Alpha
 Occup=         2.0000000000e+00
  1         8.2168227640e-02
  2        -1.6661567736e-01
  3        -3.6797096144e-02
  4         4.2830224852e-01
  5         3.2756330724e-01
  6        -3.8050867507e-01
  7        -2.1159699331e-02
  8         2.8803426035e-01
  9         2.2145061766e-01
 10        -1.8265690926e-03
 11         3.0819965148e-02
 12         1.7480246406e-02
 13        -2.2194248177e-04
 14         5.6150823575e-05
 15         2.7824087161e-02
 16         1.3646973667e-01
 17         1.0344013596e-01
 18         1.4082824641e-01
 19         1.1938108933e-01
 20        -1.9436011740e-02
 21         3.0576239959e-02
 22        -7.0678109972e-03
 23         9.6169810633e-02
 24         6.5060017907e-02
 25         1.1998682027e-01
 26        -9.7781294888e-03
 27         5.2719277980e-02
 28         5.3050631533e-02
 29        -2.6125674236e-03
 30        -9.6904619860e-03
 31        -7.0777414151e-03
 32        -5.4688644748e-04
 33        -1.3719747039e-03
 34        -6.6307539144e-03
 35        -2.9121178577e-02
 36        -1.8525763074e-02
 37        -3.6132624830e-02
 38        -7.9525135942e-02
 Sym= A
 Ene=        -3.6907821168e-01
 Spin= Alpha
 Occup=         2.0000000000e+00
  1         2.2286657443e-02
  2        -5.2881786968e-02
  3         1.0519298878e-01
  4         9.3689395668e-02
  5         8.9530071653e-02
  6        -7.9974612743e-02
  7         7.7712560653e-02
  8         7.1747507310e-02
  9         5.1867022426e-02
 10        -3.2832880809e-04
 11         3.5334085940e-03
 12         2.3316212725e-03
 13         5.0417473493e-03
 14         2.3159063136e-03
 15         6.2418802793e-03
 16         3.9303479480e-02
 17         3.1628738948e-02
 18         2.4416293522e-02
 19        -1.2634177751e-02
 20         8.3690149235e-02
 21        -1.6958643905e-01
 22        -8.7355558443e-02
 23        -4.0723293796e-01
 24        -3.2469283539e-01
 25        -3.8619968705e-01
 26        -6.3201969296e-02
 27        -2.7839341704e-01
 28        -2.1661074590e-01
 29         1.4514552238e-03
 30         2.8388534270e-02
 31         1.7625218749e-02
 32         7.9373282007e-03
 33         5.8150917536e-03
 34         2.6276908364e-02
 35         1.4183053234e-01
 36         1.1173940137e-01
 37         1.3308842357e-01
 38         1.0316685996e-01
 Sym= A
 Ene=        -3.1341775320e-01
 Spin= Alpha
 Occup=         2.0000000000e+00
  1         2.9380696455e-03
  2        -8.1315675750e-03
  3         5.9272637518e-01
  4        -6.0129187679e-03
  5         8.0639089834e-03
  6        -8.6781616632e-03
  7         4.5952909219e-01
  8        -3.8357119979e-03
  9         6.5222500981e-03
 10         2.0114995111e-03
 11        -1.8350556830e-03
 12        -2.6748450729e-04
 13         2.5041566814e-02
 14         1.9405147208e-02
 15         3.3446367439e-04
 16         2.9109478834e-03
 17         5.9095313525e-04
 18        -1.8980736063e-03
 19        -1.4045778337e-03
 20        -3.4320418369e-03
 21         6.2023437812e-03
 22        -1.3107153372e-01
 23         2.0671881504e-01
 24        -2.4320833458e-02
 25        -7.3487603566e-03
 26        -1.1361068085e-01
 27         1.6523892282e-01
 28        -1.2706313046e-02
 29         6.4222698112e-03
 30        -1.6837825022e-02
 31         3.3861541168e-03
 32         4.0895750346e-03
 33         3.6001151994e-03
 34        -5.2196262691e-03
 35         3.4205392854e-03
 36         5.2717193171e-03
 37        -3.7895606208e-02
 38         5.7640760162e-02
 Sym= A
 Ene=        -2.8689258994e-01
 Spin= Alpha
 Occup=         2.0000000000e+00
  1         2.6262114233e-03
  2        -4.5257488356e-03
  3        -2.0510799330e-01
  4        -6.7252094654e-02
  5         6.8003891334e-03
  6        -4.1442845818e-02
  7        -1.4173088416e-01
  8        -6.2713648965e-02
  9        -9.1517956284e-04
 10         2.4757336243e-03
 11        -4.9635169713e-03
 12         1.7352526987e-03
 13        -5.3618513110e-03
 14        -8.1683236498e-03
 15        -2.3258090569e-03
 16         7.8651312976e-03
 17         5.1763443925e-03
 18        -1.8052389516e-02
 19         9.0009963688e-02
 20         8.5364618866e-04
 21        -8.7374004263e-03
 22        -5.8365450701e-01
 23         1.4431284450e-01
 24        -1.0489333239e-01
 25         3.0028377876e-02
 26        -4.5791062848e-01
 27         1.0162436980e-01
 28        -8.1554459262e-02
 29         5.5016639378e-03
 30        -1.2342872884e-02
 31         2.3505164497e-03
 32         2.1913211548e-02
 33         2.0365426782e-02
 34        -5.8136735133e-04
 35        -2.2569234695e-03
 36         3.7200853822e-03
 37         1.1430105018e-02
 38        -6.6871111764e-02
 Sym= A
 Ene=         5.0689708094e-02
 Spin= Alpha
 Occup=         0.0000000000e+00
  1         9.0128303575e-02
  2        -1.2329198773e-01
  3        -4.2214965984e-02
  4        -1.5867803176e-01
  5        -1.5660329749e-01
  6        -1.0513972135e+00
  7        -5.3306801230e-02
  8        -2.7106893802e-01
  9        -2.8086661119e-01
 10         4.7134176253e-02
 11         2.7139310561e-02
 12         2.9517759620e-02
 13        -2.3914493568e-03
 14        -1.8327275283e-03
 15        -7.3489357990e-03
 16         9.0711106258e-02
 17         9.0392075211e-01
 18         7.8582621371e-02
 19         6.5785911542e-01
 20         5.8855342006e-02
 21        -8.9496898165e-02
 22         7.4483452069e-02
 23         9.1323679819e-02
 24         8.9679150636e-02
 25        -6.4224715918e-01
 26         7.7250941563e-02
 27         1.5982946210e-01
 28         1.7592338547e-01
 29         2.8071031700e-02
 30         1.4443066563e-02
 31         1.6653049143e-02
 32        -6.2382991591e-03
 33        -2.0500169782e-03
 34        -4.2693044853e-03
 35         5.5641130781e-02
 36         5.6676573532e-01
 37         3.8782031519e-02
 38         3.7700490328e-01
 Sym= A
 Ene=         9.8348235783e-02
 Spin= Alpha
 Occup=         0.0000000000e+00
  1         4.3914192950e-02
  2        -4.5223365700e-02
  3         6.8358330732e-02
  4        -4.8752412577e-02
  5        -1.8237988624e-01
  6        -6.1049335370e-01
  7         5.2558100549e-02
  8        -7.5196134944e-02
  9        -2.9580917945e-01
 10         2.3122324898e-02
 11         2.4514901620e-02
 12         1.4298782689e-02
 13        -1.7549210642e-04
 14         3.4425470371e-03
 15        -7.2562914419e-03
 16         7.7413805859e-02
 17         7.8634799841e-01
 18         4.4196878356e-02
 19         2.2933893056e-01
 20        -7.6501683232e-02
 21         8.9985573052e-02
 22         4.6635462339e-02
 23        -9.5152745750e-02
 24        -2.4679265118e-01
 25         9.8616388390e-01
 26         4.2151926832e-02
 27        -1.5526398833e-01
 28        -4.2514499826e-01
 29        -4.0233033240e-02
 30        -3.6037110604e-02
 31        -2.3099287744e-02
 32         1.9393826913e-03
 33        -2.5480560336e-03
 34         1.0371074125e-02
 35        -1.0518748743e-01
 36        -1.1905824833e+00
 37        -5.9265838493e-02
 38        -3.6832034601e-01
 Sym= A
 Ene=         1.4939160137e-01
 Spin= Alpha
 Occup=         0.0000000000e+00
  1         1.7197516833e-02
  2        -1.5606402828e-02
  3         7.1965371518e-02
  4        -3.0063834212e-01
  5         2.4797986634e-01
  6        -2.7592957878e-01
  7         6.1145244900e-02
  8        -5.2249728309e-01
  9         4.6868076553e-01
 10         5.2620753364e-03
 11        -1.2628005442e-03
 12         1.9471264387e-02
 13        -2.7429640161e-04
 14         4.4675327594e-03
 15        -9.3150369827e-04
 16        -7.8974460284e-02
 17        -9.4766562201e-01
 18         1.5195951234e-01
 19         1.4786612128e+00
 20        -1.4533981456e-02
 21        -1.2817990203e-02
 22         7.9460596157e-02
 23        -1.1530459908e-01
 24        -5.6090821117e-03
 25         3.2054434707e-01
 26         2.5728849734e-02
 27        -1.6816310059e-01
 28         3.4354050276e-03
 29        -7.8758078462e-03
 30        -1.7168894392e-02
 31        -1.7553172857e-02
 32        -3.1181537459e-03
 33        -4.1404078578e-03
 34         5.6217927813e-03
 35        -1.7198515287e-02
 36        -5.7074461997e-02
 37        -5.6156937493e-02
 38        -5.2809547507e-01
 Sym= A
 Ene=         1.9340203029e-01
 Spin= Alpha
 Occup=         0.0000000000e+00
  1         6.4642432298e-03
  2        -5.5063087855e-02
  3        -1.5476369614e-01
  4        -1.7820630229e-02
  5         1.5061028836e-01
  6         1.3031493013e-01
  7        -1.5888950321e-01
  8        -7.2157744431e-02
  9         2.2915846743e-01
 10         8.9485939064e-04
 11        -2.0955444729e-02
 12        -8.7112446470e-03
 13        -4.8064058636e-03
 14        -7.5057695592e-03
 15         6.8548379051e-03
 16        -6.4359129848e-02
 17        -4.6502619908e-01
 18         1.0800450084e-02
 19         5.3580692396e-02
 20         3.1566508608e-02
 21        -5.6709052630e-02
 22         1.1752690142e-01
 23         2.8027507645e-01
 24        -2.5734385883e-01
 25        -3.7317331366e-01
 26         2.5869518745e-01
 27         4.9400945753e-01
 28        -4.7970319300e-01
 29         5.7546603213e-03
 30         4.4914559414e-04
 31         1.7257057072e-02
 32        -7.2252652118e-03
 33         1.0217650675e-03
 34         1.3146133178e-04
 35        -8.6635838713e-02
 36        -9.1625575043e-01
 37         1.6499192390e-01
 38         1.5503727984e+00
 Sym= A
 Ene=         7.4251436348e-01
 Spin= Alpha
 Occup=         0.0000000000e+00
  1        -3.3491332540e-04
  2         2.0211177143e-02
  3        -6.0612884854e-02
  4        -3.3751438777e-02
  5         1.2647680057e-01
  6        -4.1012987345e-02
  7         7.0579887473e-03
  8        -2.5418648421e-01
  9         3.3408772392e-01
 10         2.5401256182e-02
 11         1.3443354309e-01
 12        -1.3593563932e-01
 13         2.0927461974e-04
 14         3.1275764546e-03
 15        -2.6068163670e-02
 16        -7.8898116904e-01
 17         5.4615566671e-01
 18         6.2843525049e-01
 19        -5.0970293783e-01
 20         3.4359325744e-03
 21         5.0349684347e-02
 22        -2.1039629819e-01
 23         2.9163941040e-03
 24         3.9929076466e-02
 25        -1.6070121509e-01
 26         7.8899524526e-02
 27        -1.0685508715e-01
 28         2.2916433117e-01
 29        -1.6665874029e-02
 30        -3.7069750926e-02
 31         9.6534733604e-02
 32        -3.4119404059e-02
 33        -7.2262954921e-03
 34         1.7733486626e-02
 35         4.5694992742e-01
 36        -2.8203452016e-01
 37        -3.6470537361e-01
 38         4.1951865276e-01
 Sym= A
 Ene=         8.0184146818e-01
 Spin= Alpha
 Occup=         0.0000000000e+00
  1        -9.8081301597e-04
  2         4.7117624965e-02
  3        -1.4673573367e-01
  4        -4.5949788429e-03
  5        -1.0667683191e-01
  6        -4.6246561878e-02
  7         1.0349730831e-01
  8         2.0691804821e-01
  9        -5.4294300130e-02
 10         3.5553144885e-02
 11        -7.3504362307e-02
 12         9.6032099302e-02
 13         1.4120999407e-02
 14         2.1844779398e-04
 15         3.4334665680e-02
 16         3.2195420530e-01
 17        -3.2589354598e-01
 18        -4.4712336929e-01
 19         2.6741489867e-01
 20         6.5181341224e-03
 21        -1.9353939461e-01
 22         1.0917691007e-01
 23        -5.5337922688e-03
 24         1.2328819121e-01
 25         3.4696747790e-01
 26        -2.3840905674e-01
 27        -2.1169328550e-01
 28         3.0290385123e-01
 29        -7.2339773503e-02
 30        -1.7730646868e-01
 31         1.0177124772e-01
 32        -3.8128443787e-02
 33        -2.8546597372e-02
 34         3.7499137068e-02
 35         8.5553043791e-01
 36        -6.8981461114e-01
 37        -5.2185679016e-01
 38         3.1550012033e-01
 Sym= A
 Ene=         8.4130158331e-01
 Spin= Alpha
 Occup=         0.0000000000e+00
  1         1.7910341886e-02
  2        -3.4286240830e-02
  3        -3.4244523064e-01
  4        -5.4003207382e-01
  5        -3.4887419034e-01
  6         8.7657108516e-02
  7         4.1637630478e-01
  8         3.7707910151e-01
  9         2.5775075399e-01
 10        -6.7672546310e-02
 11         8.7946876355e-02
 12         4.6268748646e-02
 13         1.0369384588e-02
 14         1.0265867374e-03
 15        -6.0656515491e-02
 16         3.4497880501e-01
 17        -2.4421630087e-01
 18         5.6375065221e-01
 19        -5.0531361523e-01
 20         1.2773742557e-02
 21        -9.2720342994e-02
 22         1.4349737727e-01
 23         2.3837437698e-01
 24         1.4006134529e-01
 25         1.6882206535e-01
 26        -1.4527350144e-01
 27        -1.0237521070e-01
 28        -5.4338435738e-02
 29        -5.7282596321e-02
 30         2.1267429007e-02
 31         1.4925741909e-03
 32         5.2865655433e-02
 33        -3.2402379669e-02
 34        -4.3353319062e-02
 35         2.4064969151e-01
 36        -1.0080928928e-01
 37         4.5151599753e-01
 38        -4.5034583471e-01
 Sym= A
 Ene=         8.4864446899e-01
 Spin= Alpha
 Occup=         0.0000000000e+00
  1         1.7661622368e-02
  2        -6.4176967603e-01
  3         1.2394214017e-01
  4         1.9437523642e-01
  5         2.2224752526e-01
  6         1.0140146404e+00
  7        -1.6274724412e-01
  8        -3.6260068881e-01
  9        -3.9032343644e-01
 10        -2.5061799176e-01
 11        -1.7613236752e-01
 12        -1.1997623977e-01
 13        -1.1025392259e-02
 14        -4.9974203700e-03
 15        -5.2303309323e-02
 16         5.0023941160e-01
 17        -3.9679113773e-01
 18         3.8234228795e-01
 19        -2.8327614824e-01
 20         2.1024580174e-03
 21         4.3847487586e-01
 22        -1.1528006468e-01
 23         3.5269324375e-01
 24         3.5716365018e-01
 25        -7.6566443895e-01
 26         8.0071542123e-02
 27        -4.1051991123e-01
 28        -3.4633993612e-01
 29         1.3781314133e-01
 30         1.3265069494e-01
 31         1.6982403560e-01
 32        -1.4106288700e-02
 33         1.2604032488e-02
 34         2.6243754713e-02
 35         4.4535011125e-02
 36        -9.3448934520e-02
 37        -2.0124509508e-01
 38         2.8079963489e-01
 Sym= A
 Ene=         8.7137507506e-01
 Spin= Alpha
 Occup=         0.0000000000e+00
  1         2.2763924698e-02
  2         8.8151750117e-03
  3         2.2758243675e-01
  4        -2.6424749211e-01
  5        -2.7972374624e-01
  6        -1.1939320577e-01
  7        -2.9809810780e-01
  8         1.7642913656e-01
  9         1.9716593415e-01
 10        -1.9767580103e-02
 11         2.7579204307e-02
 12         1.0637949656e-01
 13        -1.3179541287e-02
 14         3.8508033452e-03
 15        -1.6881155881e-02
 16         4.1401006665e-01
 17        -4.2658761519e-01
 18         1.7871083941e-01
 19        -5.0696733052e-02
 20        -1.4034277294e-02
 21        -1.3802246643e-01
 22        -6.5187024354e-01
 23        -3.3812155518e-02
 24        -3.4592238241e-01
 25         2.1247693150e-01
 26         6.6043729822e-01
 27        -6.9426621253e-02
 28         3.0085788803e-01
 29        -3.6598478492e-02
 30        -7.7352163082e-02
 31        -7.4750304781e-02
 32        -5.3946596064e-02
 33         2.4849974579e-02
 34         3.3264724738e-02
 35        -1.7019139845e-01
 36         4.6712504791e-02
 37        -3.8760249402e-01
 38         4.8793784573e-01
 Sym= A
 Ene=         8.8919343405e-01
 Spin= Alpha
 Occup=         0.0000000000e+00
  1         2.0015394203e-02
  2        -1.2747041628e-01
  3        -5.5326309803e-01
  4         1.3540582750e-01
  5        -3.5222156890e-02
  6         1.0669619931e-01
  7         5.5990380047e-01
  8        -3.0640455985e-01
  9        -2.5734429384e-02
 10        -7.4553837605e-02
 11         3.6491654322e-03
 12         1.8113010961e-02
 13         1.1802445292e-02
 14         4.7531748450e-03
 15        -4.2185754038e-02
 16         2.6858618552e-01
 17        -1.9568248019e-01
 18         3.3181933754e-01
 19        -2.2385485673e-01
 20        -2.9003471629e-02
 21         1.8748076701e-01
 22         1.8448398727e-01
 23        -4.3888708526e-01
 24        -1.9341957403e-01
 25        -2.0752250709e-01
 26        -2.7824201930e-01
 27         2.2659061585e-01
 28         1.1613843105e-01
 29         8.7947558896e-02
 30        -2.3343463702e-02
 31        -2.6229063178e-02
 32        -5.1975746006e-02
 33         4.7875612318e-02
 34         4.9645515323e-02
 35        -4.3503161018e-01
 36         3.8946220373e-01
 37        -5.6311823240e-01
 38         3.4748396547e-01
 Sym= A
 Ene=         9.2353569749e-01
 Spin= Alpha
 Occup=         0.0000000000e+00
  1        -5.4260045992e-04
  2         4.6898855839e-01
  3        -5.2193127743e-02
  4        -2.9950134947e-01
  5        -8.3858210542e-02
  6        -8.4485933306e-01
  7         1.6027708318e-02
  8         4.4786858080e-01
  9         1.4117707030e-01
 10         1.9496336821e-01
 11         1.2250863870e-01
 12         1.1865672257e-01
 13         1.8143232750e-03
 14        -7.5509412508e-03
 15         3.7965483656e-02
 16        -2.5400463866e-01
 17         3.0125139880e-01
 18        -2.6269877249e-01
 19         1.1638550578e-01
 20        -1.4432969080e-02
 21         6.0305882933e-01
 22         1.1617192816e-01
 23         4.0563883676e-01
 24         8.9243831236e-02
 25        -9.9255579594e-01
 26        -1.7586367178e-01
 27        -6.7064754686e-01
 28        -1.9622069577e-01
 29         2.4322782128e-01
 30         1.5591703550e-01
 31         1.2548056287e-01
 32        -5.1108150109e-02
 33         4.2173159449e-02
 34         5.5958178098e-02
 35        -4.5662493315e-01
 36         4.3597009962e-01
 37        -5.1260033961e-01
 38         2.8135095196e-01
 Sym= A
 Ene=         1.0481367958e+00
 Spin= Alpha
 Occup=         0.0000000000e+00
  1         6.2979926103e-03
  2         3.0337940076e-01
  3        -5.7269071356e-01
  4         6.3831032262e-03
  5         4.2105374942e-01
  6        -8.3338486939e-01
  7         7.6369112774e-01
  8         5.3553489222e-02
  9        -6.6905321574e-01
 10         7.9572994987e-02
 11         4.0960313113e-02
 12         1.1396434329e-01
 13        -4.1085754482e-02
 14         4.6143417035e-02
 15         4.4952799936e-02
 16        -6.6430014881e-02
 17         5.3057153434e-01
 18        -2.9500872949e-01
 19         5.0961946570e-01
 20         2.4063039931e-03
 21         7.6716170051e-02
 22        -5.3462420107e-01
 23         9.6635977199e-02
 24         6.0502827340e-02
 25         2.1298498752e-02
 26         6.7982484449e-01
 27        -1.0113117173e-01
 28        -5.4731421627e-02
 29         4.9899757153e-02
 30         1.2236053898e-02
 31         5.2600925678e-03
 32         6.1384581806e-02
 33        -5.7652316494e-02
 34        -3.2086838342e-02
 35         6.8424619517e-02
 36        -3.4801060647e-02
 37         2.5389595450e-01
 38        -5.5942068731e-01
 Sym= A
 Ene=         1.0610950309e+00
 Spin= Alpha
 Occup=         0.0000000000e+00
  1         5.2710143962e-03
  2        -3.2693654513e-02
  3         1.8696499379e-01
  4        -6.0213724619e-01
  5         6.8186175948e-01
  6         8.9914845034e-02
  7        -2.5879164193e-01
  8         9.4856914086e-01
  9        -1.1633430152e+00
 10        -2.0829642902e-02
 11         6.2625793944e-03
 12         1.1838422886e-02
 13         1.7560958212e-02
 14        -1.7057822907e-02
 15        -2.5998196757e-02
 16         5.0284366124e-02
 17         8.2917347334e-01
 18         2.0009782040e-01
 19        -1.1745489242e+00
 20        -6.9291053035e-03
 21        -4.1064450353e-02
 22         1.6834032413e-01
 23        -2.3488207907e-01
 24        -6.9453013131e-02
 25         5.6061121956e-02
 26        -2.7166028930e-01
 27         2.5949470308e-01
 28         1.1122754273e-01
 29        -4.1441441315e-02
 30        -3.3342642290e-02
 31        -5.1830113552e-03
 32        -3.8523820692e-03
 33         2.5308375108e-02
 34         1.0959459604e-02
 35        -8.2131673542e-04
 36         3.0498609535e-02